<?xml version="1.0" encoding="UTF-8"?>

<!-- generated on Fri Dec 22 11:25:46 2017 by SUMO Version v0_31_0+1587-c313078
<?xml version="1.0" encoding="UTF-8"?>

<configuration xmlns:xsi="http://www.w3.org/2001/XMLSchema-instance" xsi:noNamespaceSchemaLocation="http://sumo.dlr.de/xsd/sumoConfiguration.xsd">

    <input>
        <net-file value="tl2/2-intersections/2/twoIntersections.net.xml"/>
        <route-files value="tl2/2-intersections/2/twoIntersections.500.rou.xml"/>
        <additional-files value="tl2/2-intersections/2/tlLogic.add.xml"/>
    </input>

    <output>
        <summary-output value="tl2/2-intersections/2/output-emissions.xml"/>
        <tripinfo-output value="tl2/2-intersections/2/output-tripinfos.xml"/>
        <vehroute-output value="tl2/2-intersections/2/output-vehroutes.xml"/>
    </output>

    <time>
        <begin value="0"/>
        <end value="1600"/>
    </time>

    <processing>
        <route-steps value="-1"/>
        <time-to-teleport value="-1"/>
    </processing>

    <random_number>
        <seed value="23423"/>
    </random_number>

</configuration>
-->

<summary xmlns:xsi="http://www.w3.org/2001/XMLSchema-instance" xsi:noNamespaceSchemaLocation="http://sumo.dlr.de/xsd/summary_file.xsd">
    <step time="0.00" loaded="500" inserted="1" running="1" waiting="0" ended="0" meanWaitingTime="0.00" meanTravelTime="-1.00" halting="1" meanSpeed="0.00" meanSpeedRelative="0.00" duration="1513913147010"/>
    <step time="1.00" loaded="500" inserted="2" running="2" waiting="0" ended="0" meanWaitingTime="0.00" meanTravelTime="-1.00" halting="1" meanSpeed="0.72" meanSpeedRelative="0.03" duration="1513913147010"/>
    <step time="2.00" loaded="500" inserted="3" running="3" waiting="0" ended="0" meanWaitingTime="0.00" meanTravelTime="-1.00" halting="1" meanSpeed="1.89" meanSpeedRelative="0.07" duration="1513913147010"/>
    <step time="3.00" loaded="500" inserted="4" running="4" waiting="0" ended="0" meanWaitingTime="0.00" meanTravelTime="-1.00" halting="1" meanSpeed="3.00" meanSpeedRelative="0.11" duration="1513913147010"/>
    <step time="4.00" loaded="500" inserted="5" running="5" waiting="0" ended="0" meanWaitingTime="0.00" meanTravelTime="-1.00" halting="1" meanSpeed="3.89" meanSpeedRelative="0.14" duration="1513913147010"/>
    <step time="5.00" loaded="500" inserted="6" running="6" waiting="0" ended="0" meanWaitingTime="0.00" meanTravelTime="-1.00" halting="1" meanSpeed="4.94" meanSpeedRelative="0.18" duration="1513913147010"/>
    <step time="6.00" loaded="500" inserted="7" running="7" waiting="0" ended="0" meanWaitingTime="0.00" meanTravelTime="-1.00" halting="1" meanSpeed="6.04" meanSpeedRelative="0.22" duration="1513913147011"/>
    <step time="7.00" loaded="500" inserted="8" running="8" waiting="0" ended="0" meanWaitingTime="0.00" meanTravelTime="-1.00" halting="1" meanSpeed="6.83" meanSpeedRelative="0.25" duration="1513913147011"/>
    <step time="8.00" loaded="500" inserted="9" running="9" waiting="0" ended="0" meanWaitingTime="0.00" meanTravelTime="-1.00" halting="1" meanSpeed="7.94" meanSpeedRelative="0.29" duration="1513913147011"/>
    <step time="9.00" loaded="500" inserted="10" running="10" waiting="0" ended="0" meanWaitingTime="0.00" meanTravelTime="-1.00" halting="1" meanSpeed="9.06" meanSpeedRelative="0.33" duration="1513913147011"/>
    <step time="10.00" loaded="500" inserted="11" running="11" waiting="0" ended="0" meanWaitingTime="0.00" meanTravelTime="-1.00" halting="1" meanSpeed="9.86" meanSpeedRelative="0.35" duration="1513913147011"/>
    <step time="11.00" loaded="500" inserted="12" running="12" waiting="0" ended="0" meanWaitingTime="0.00" meanTravelTime="-1.00" halting="1" meanSpeed="10.95" meanSpeedRelative="0.39" duration="1513913147011"/>
    <step time="12.00" loaded="500" inserted="13" running="13" waiting="0" ended="0" meanWaitingTime="0.00" meanTravelTime="-1.00" halting="1" meanSpeed="12.11" meanSpeedRelative="0.44" duration="1513913147011"/>
    <step time="13.00" loaded="500" inserted="14" running="14" waiting="0" ended="0" meanWaitingTime="0.00" meanTravelTime="-1.00" halting="1" meanSpeed="13.06" meanSpeedRelative="0.47" duration="1513913147011"/>
    <step time="14.00" loaded="500" inserted="15" running="15" waiting="0" ended="0" meanWaitingTime="0.00" meanTravelTime="-1.00" halting="1" meanSpeed="13.75" meanSpeedRelative="0.49" duration="1513913147011"/>
    <step time="15.00" loaded="500" inserted="16" running="16" waiting="0" ended="0" meanWaitingTime="0.00" meanTravelTime="-1.00" halting="1" meanSpeed="14.66" meanSpeedRelative="0.53" duration="1513913147011"/>
    <step time="16.00" loaded="500" inserted="17" running="17" waiting="0" ended="0" meanWaitingTime="0.00" meanTravelTime="-1.00" halting="1" meanSpeed="15.32" meanSpeedRelative="0.55" duration="1513913147011"/>
    <step time="17.00" loaded="500" inserted="18" running="18" waiting="0" ended="0" meanWaitingTime="0.00" meanTravelTime="-1.00" halting="1" meanSpeed="15.88" meanSpeedRelative="0.57" duration="1513913147011"/>
    <step time="18.00" loaded="500" inserted="19" running="19" waiting="0" ended="0" meanWaitingTime="0.00" meanTravelTime="-1.00" halting="1" meanSpeed="16.23" meanSpeedRelative="0.58" duration="1513913147011"/>
    <step time="19.00" loaded="500" inserted="19" running="19" waiting="1" ended="0" meanWaitingTime="0.00" meanTravelTime="-1.00" halting="0" meanSpeed="17.58" meanSpeedRelative="0.63" duration="1513913147011"/>
    <step time="20.00" loaded="500" inserted="20" running="20" waiting="1" ended="0" meanWaitingTime="0.00" meanTravelTime="-1.00" halting="1" meanSpeed="17.70" meanSpeedRelative="0.64" duration="1513913147011"/>
    <step time="21.00" loaded="500" inserted="21" running="21" waiting="1" ended="0" meanWaitingTime="0.10" meanTravelTime="-1.00" halting="1" meanSpeed="17.81" meanSpeedRelative="0.64" duration="1513913147011"/>
    <step time="22.00" loaded="500" inserted="22" running="22" waiting="1" ended="0" meanWaitingTime="0.09" meanTravelTime="-1.00" halting="1" meanSpeed="18.01" meanSpeedRelative="0.65" duration="1513913147012"/>
    <step time="23.00" loaded="500" inserted="23" running="23" waiting="1" ended="0" meanWaitingTime="0.09" meanTravelTime="-1.00" halting="1" meanSpeed="18.33" meanSpeedRelative="0.66" duration="1513913147012"/>
    <step time="24.00" loaded="500" inserted="25" running="25" waiting="0" ended="0" meanWaitingTime="0.20" meanTravelTime="-1.00" halting="2" meanSpeed="17.69" meanSpeedRelative="0.64" duration="1513913147012"/>
    <step time="25.00" loaded="500" inserted="26" running="26" waiting="0" ended="0" meanWaitingTime="0.19" meanTravelTime="-1.00" halting="1" meanSpeed="17.88" meanSpeedRelative="0.64" duration="1513913147012"/>
    <step time="26.00" loaded="500" inserted="27" running="27" waiting="0" ended="0" meanWaitingTime="0.19" meanTravelTime="-1.00" halting="1" meanSpeed="17.92" meanSpeedRelative="0.65" duration="1513913147012"/>
    <step time="27.00" loaded="500" inserted="27" running="27" waiting="1" ended="0" meanWaitingTime="0.19" meanTravelTime="-1.00" halting="0" meanSpeed="18.74" meanSpeedRelative="0.67" duration="1513913147012"/>
    <step time="28.00" loaded="500" inserted="29" running="29" waiting="0" ended="0" meanWaitingTime="0.21" meanTravelTime="-1.00" halting="2" meanSpeed="18.11" meanSpeedRelative="0.65" duration="1513913147012"/>
    <step time="29.00" loaded="500" inserted="29" running="29" waiting="1" ended="0" meanWaitingTime="0.21" meanTravelTime="-1.00" halting="0" meanSpeed="19.03" meanSpeedRelative="0.69" duration="1513913147012"/>
    <step time="30.00" loaded="500" inserted="30" running="30" waiting="1" ended="0" meanWaitingTime="0.20" meanTravelTime="-1.00" halting="1" meanSpeed="19.41" meanSpeedRelative="0.70" duration="1513913147012"/>
    <step time="31.00" loaded="500" inserted="32" running="32" waiting="0" ended="0" meanWaitingTime="0.25" meanTravelTime="-1.00" halting="2" meanSpeed="18.94" meanSpeedRelative="0.68" duration="1513913147012"/>
    <step time="32.00" loaded="500" inserted="33" running="33" waiting="0" ended="0" meanWaitingTime="0.24" meanTravelTime="-1.00" halting="1" meanSpeed="19.43" meanSpeedRelative="0.70" duration="1513913147012"/>
    <step time="33.00" loaded="500" inserted="34" running="34" waiting="0" ended="0" meanWaitingTime="0.24" meanTravelTime="-1.00" halting="2" meanSpeed="19.72" meanSpeedRelative="0.71" duration="1513913147013"/>
    <step time="34.00" loaded="500" inserted="35" running="35" waiting="0" ended="0" meanWaitingTime="0.23" meanTravelTime="-1.00" halting="2" meanSpeed="19.95" meanSpeedRelative="0.72" duration="1513913147013"/>
    <step time="35.00" loaded="500" inserted="36" running="36" waiting="0" ended="0" meanWaitingTime="0.22" meanTravelTime="-1.00" halting="2" meanSpeed="20.21" meanSpeedRelative="0.73" duration="1513913147013"/>
    <step time="36.00" loaded="500" inserted="37" running="37" waiting="0" ended="0" meanWaitingTime="0.22" meanTravelTime="-1.00" halting="2" meanSpeed="20.47" meanSpeedRelative="0.74" duration="1513913147013"/>
    <step time="37.00" loaded="500" inserted="38" running="38" waiting="0" ended="0" meanWaitingTime="0.21" meanTravelTime="-1.00" halting="2" meanSpeed="20.71" meanSpeedRelative="0.75" duration="1513913147013"/>
    <step time="38.00" loaded="500" inserted="39" running="39" waiting="0" ended="0" meanWaitingTime="0.21" meanTravelTime="-1.00" halting="2" meanSpeed="21.02" meanSpeedRelative="0.76" duration="1513913147013"/>
    <step time="39.00" loaded="500" inserted="40" running="40" waiting="0" ended="0" meanWaitingTime="0.20" meanTravelTime="-1.00" halting="2" meanSpeed="21.19" meanSpeedRelative="0.76" duration="1513913147013"/>
    <step time="40.00" loaded="500" inserted="40" running="40" waiting="1" ended="0" meanWaitingTime="0.20" meanTravelTime="-1.00" halting="1" meanSpeed="21.83" meanSpeedRelative="0.79" duration="1513913147013"/>
    <step time="41.00" loaded="500" inserted="42" running="42" waiting="0" ended="0" meanWaitingTime="0.21" meanTravelTime="-1.00" halting="3" meanSpeed="21.38" meanSpeedRelative="0.77" duration="1513913147013"/>
    <step time="42.00" loaded="500" inserted="43" running="43" waiting="0" ended="0" meanWaitingTime="0.21" meanTravelTime="-1.00" halting="2" meanSpeed="21.50" meanSpeedRelative="0.77" duration="1513913147014"/>
    <step time="43.00" loaded="500" inserted="44" running="44" waiting="0" ended="0" meanWaitingTime="0.20" meanTravelTime="-1.00" halting="2" meanSpeed="21.68" meanSpeedRelative="0.78" duration="1513913147014"/>
    <step time="44.00" loaded="500" inserted="45" running="45" waiting="0" ended="0" meanWaitingTime="0.20" meanTravelTime="-1.00" halting="2" meanSpeed="21.76" meanSpeedRelative="0.78" duration="1513913147014"/>
    <step time="45.00" loaded="500" inserted="46" running="46" waiting="0" ended="0" meanWaitingTime="0.20" meanTravelTime="-1.00" halting="2" meanSpeed="21.78" meanSpeedRelative="0.78" duration="1513913147014"/>
    <step time="46.00" loaded="500" inserted="47" running="47" waiting="0" ended="0" meanWaitingTime="0.19" meanTravelTime="-1.00" halting="2" meanSpeed="21.73" meanSpeedRelative="0.78" duration="1513913147014"/>
    <step time="47.00" loaded="500" inserted="48" running="48" waiting="0" ended="0" meanWaitingTime="0.19" meanTravelTime="-1.00" halting="2" meanSpeed="21.80" meanSpeedRelative="0.78" duration="1513913147014"/>
    <step time="48.00" loaded="500" inserted="48" running="48" waiting="1" ended="0" meanWaitingTime="0.19" meanTravelTime="-1.00" halting="1" meanSpeed="22.31" meanSpeedRelative="0.80" duration="1513913147014"/>
    <step time="49.00" loaded="500" inserted="49" running="49" waiting="1" ended="0" meanWaitingTime="0.18" meanTravelTime="-1.00" halting="3" meanSpeed="22.38" meanSpeedRelative="0.81" duration="1513913147015"/>
    <step time="50.00" loaded="500" inserted="51" running="51" waiting="0" ended="0" meanWaitingTime="0.22" meanTravelTime="-1.00" halting="4" meanSpeed="21.97" meanSpeedRelative="0.79" duration="1513913147015"/>
    <step time="51.00" loaded="500" inserted="52" running="52" waiting="0" ended="0" meanWaitingTime="0.21" meanTravelTime="-1.00" halting="3" meanSpeed="22.06" meanSpeedRelative="0.79" duration="1513913147015"/>
    <step time="52.00" loaded="500" inserted="53" running="53" waiting="0" ended="0" meanWaitingTime="0.21" meanTravelTime="-1.00" halting="3" meanSpeed="22.19" meanSpeedRelative="0.80" duration="1513913147015"/>
    <step time="53.00" loaded="500" inserted="54" running="54" waiting="0" ended="0" meanWaitingTime="0.20" meanTravelTime="-1.00" halting="3" meanSpeed="22.39" meanSpeedRelative="0.81" duration="1513913147015"/>
    <step time="54.00" loaded="500" inserted="55" running="55" waiting="0" ended="0" meanWaitingTime="0.20" meanTravelTime="-1.00" halting="3" meanSpeed="22.36" meanSpeedRelative="0.81" duration="1513913147015"/>
    <step time="55.00" loaded="500" inserted="56" running="56" waiting="0" ended="0" meanWaitingTime="0.20" meanTravelTime="-1.00" halting="3" meanSpeed="22.51" meanSpeedRelative="0.81" duration="1513913147015"/>
    <step time="56.00" loaded="500" inserted="57" running="57" waiting="0" ended="0" meanWaitingTime="0.19" meanTravelTime="-1.00" halting="3" meanSpeed="22.48" meanSpeedRelative="0.81" duration="1513913147016"/>
    <step time="57.00" loaded="500" inserted="57" running="57" waiting="1" ended="0" meanWaitingTime="0.19" meanTravelTime="-1.00" halting="2" meanSpeed="22.78" meanSpeedRelative="0.82" duration="1513913147016"/>
    <step time="58.00" loaded="500" inserted="58" running="58" waiting="1" ended="0" meanWaitingTime="0.19" meanTravelTime="-1.00" halting="3" meanSpeed="22.65" meanSpeedRelative="0.82" duration="1513913147016"/>
    <step time="59.00" loaded="500" inserted="60" running="60" waiting="0" ended="0" meanWaitingTime="0.22" meanTravelTime="-1.00" halting="4" meanSpeed="22.20" meanSpeedRelative="0.80" duration="1513913147016"/>
    <step time="60.00" loaded="500" inserted="60" running="60" waiting="1" ended="0" meanWaitingTime="0.22" meanTravelTime="-1.00" halting="2" meanSpeed="22.43" meanSpeedRelative="0.81" duration="1513913147016"/>
    <step time="61.00" loaded="500" inserted="60" running="59" waiting="2" ended="1" meanWaitingTime="0.22" meanTravelTime="60.00" halting="3" meanSpeed="22.67" meanSpeedRelative="0.82" duration="1513913147016"/>
    <step time="62.00" loaded="500" inserted="62" running="61" waiting="1" ended="1" meanWaitingTime="0.23" meanTravelTime="60.00" halting="5" meanSpeed="22.08" meanSpeedRelative="0.79" duration="1513913147017"/>
    <step time="63.00" loaded="500" inserted="62" running="61" waiting="2" ended="1" meanWaitingTime="0.23" meanTravelTime="60.00" halting="3" meanSpeed="22.35" meanSpeedRelative="0.80" duration="1513913147017"/>
    <step time="64.00" loaded="500" inserted="62" running="61" waiting="3" ended="1" meanWaitingTime="0.23" meanTravelTime="60.00" halting="3" meanSpeed="22.54" meanSpeedRelative="0.81" duration="1513913147017"/>
    <step time="65.00" loaded="500" inserted="64" running="63" waiting="2" ended="1" meanWaitingTime="0.25" meanTravelTime="60.00" halting="6" meanSpeed="21.91" meanSpeedRelative="0.79" duration="1513913147017"/>
    <step time="66.00" loaded="500" inserted="65" running="64" waiting="2" ended="1" meanWaitingTime="0.25" meanTravelTime="60.00" halting="6" meanSpeed="21.54" meanSpeedRelative="0.78" duration="1513913147017"/>
    <step time="67.00" loaded="500" inserted="65" running="64" waiting="3" ended="1" meanWaitingTime="0.25" meanTravelTime="60.00" halting="5" meanSpeed="21.66" meanSpeedRelative="0.78" duration="1513913147017"/>
    <step time="68.00" loaded="500" inserted="65" running="64" waiting="4" ended="1" meanWaitingTime="0.25" meanTravelTime="60.00" halting="5" meanSpeed="21.75" meanSpeedRelative="0.78" duration="1513913147017"/>
    <step time="69.00" loaded="500" inserted="66" running="65" waiting="4" ended="1" meanWaitingTime="0.24" meanTravelTime="60.00" halting="7" meanSpeed="21.50" meanSpeedRelative="0.77" duration="1513913147018"/>
    <step time="70.00" loaded="500" inserted="67" running="66" waiting="4" ended="1" meanWaitingTime="0.24" meanTravelTime="60.00" halting="8" meanSpeed="21.17" meanSpeedRelative="0.76" duration="1513913147018"/>
    <step time="71.00" loaded="500" inserted="67" running="66" waiting="5" ended="1" meanWaitingTime="0.24" meanTravelTime="60.00" halting="8" meanSpeed="21.21" meanSpeedRelative="0.76" duration="1513913147018"/>
    <step time="72.00" loaded="500" inserted="67" running="66" waiting="6" ended="1" meanWaitingTime="0.24" meanTravelTime="60.00" halting="9" meanSpeed="21.33" meanSpeedRelative="0.77" duration="1513913147018"/>
    <step time="73.00" loaded="500" inserted="68" running="67" waiting="6" ended="1" meanWaitingTime="0.24" meanTravelTime="60.00" halting="10" meanSpeed="21.28" meanSpeedRelative="0.77" duration="1513913147018"/>
    <step time="74.00" loaded="500" inserted="69" running="68" waiting="6" ended="1" meanWaitingTime="0.23" meanTravelTime="60.00" halting="10" meanSpeed="21.03" meanSpeedRelative="0.76" duration="1513913147018"/>
    <step time="75.00" loaded="500" inserted="70" running="68" waiting="6" ended="2" meanWaitingTime="0.23" meanTravelTime="57.00" halting="10" meanSpeed="20.76" meanSpeedRelative="0.75" duration="1513913147019"/>
    <step time="76.00" loaded="500" inserted="71" running="69" waiting="6" ended="2" meanWaitingTime="0.23" meanTravelTime="57.00" halting="10" meanSpeed="20.59" meanSpeedRelative="0.74" duration="1513913147019"/>
    <step time="77.00" loaded="500" inserted="71" running="69" waiting="7" ended="2" meanWaitingTime="0.23" meanTravelTime="57.00" halting="10" meanSpeed="20.65" meanSpeedRelative="0.74" duration="1513913147019"/>
    <step time="78.00" loaded="500" inserted="71" running="69" waiting="8" ended="2" meanWaitingTime="0.23" meanTravelTime="57.00" halting="10" meanSpeed="20.84" meanSpeedRelative="0.75" duration="1513913147019"/>
    <step time="79.00" loaded="500" inserted="72" running="70" waiting="8" ended="2" meanWaitingTime="0.22" meanTravelTime="57.00" halting="12" meanSpeed="20.59" meanSpeedRelative="0.74" duration="1513913147019"/>
    <step time="80.00" loaded="500" inserted="72" running="70" waiting="9" ended="2" meanWaitingTime="0.22" meanTravelTime="57.00" halting="11" meanSpeed="20.71" meanSpeedRelative="0.75" duration="1513913147020"/>
    <step time="81.00" loaded="500" inserted="72" running="70" waiting="10" ended="2" meanWaitingTime="0.22" meanTravelTime="57.00" halting="11" meanSpeed="20.70" meanSpeedRelative="0.75" duration="1513913147020"/>
    <step time="82.00" loaded="500" inserted="72" running="70" waiting="11" ended="2" meanWaitingTime="0.22" meanTravelTime="57.00" halting="11" meanSpeed="20.87" meanSpeedRelative="0.75" duration="1513913147020"/>
    <step time="83.00" loaded="500" inserted="72" running="70" waiting="12" ended="2" meanWaitingTime="0.22" meanTravelTime="57.00" halting="13" meanSpeed="20.81" meanSpeedRelative="0.75" duration="1513913147020"/>
    <step time="84.00" loaded="500" inserted="72" running="69" waiting="13" ended="3" meanWaitingTime="0.22" meanTravelTime="56.67" halting="13" meanSpeed="20.66" meanSpeedRelative="0.74" duration="1513913147020"/>
    <step time="85.00" loaded="500" inserted="72" running="69" waiting="14" ended="3" meanWaitingTime="0.22" meanTravelTime="56.67" halting="14" meanSpeed="20.63" meanSpeedRelative="0.74" duration="1513913147021"/>
    <step time="86.00" loaded="500" inserted="72" running="68" waiting="15" ended="4" meanWaitingTime="0.22" meanTravelTime="56.25" halting="14" meanSpeed="20.42" meanSpeedRelative="0.73" duration="1513913147021"/>
    <step time="87.00" loaded="500" inserted="73" running="68" waiting="15" ended="5" meanWaitingTime="0.22" meanTravelTime="55.80" halting="15" meanSpeed="20.02" meanSpeedRelative="0.72" duration="1513913147021"/>
    <step time="88.00" loaded="500" inserted="73" running="67" waiting="16" ended="6" meanWaitingTime="0.22" meanTravelTime="61.17" halting="14" meanSpeed="19.92" meanSpeedRelative="0.72" duration="1513913147021"/>
    <step time="89.00" loaded="500" inserted="73" running="66" waiting="17" ended="7" meanWaitingTime="0.22" meanTravelTime="60.86" halting="14" meanSpeed="19.92" meanSpeedRelative="0.72" duration="1513913147021"/>
    <step time="90.00" loaded="500" inserted="73" running="66" waiting="18" ended="7" meanWaitingTime="0.22" meanTravelTime="60.86" halting="14" meanSpeed="19.71" meanSpeedRelative="0.71" duration="1513913147021"/>
    <step time="91.00" loaded="500" inserted="73" running="65" waiting="19" ended="8" meanWaitingTime="0.22" meanTravelTime="61.62" halting="15" meanSpeed="19.43" meanSpeedRelative="0.70" duration="1513913147022"/>
    <step time="92.00" loaded="500" inserted="74" running="66" waiting="19" ended="8" meanWaitingTime="0.22" meanTravelTime="61.62" halting="17" meanSpeed="19.03" meanSpeedRelative="0.69" duration="1513913147022"/>
    <step time="93.00" loaded="500" inserted="75" running="67" waiting="19" ended="8" meanWaitingTime="0.21" meanTravelTime="61.62" halting="17" meanSpeed="18.53" meanSpeedRelative="0.67" duration="1513913147022"/>
    <step time="94.00" loaded="500" inserted="76" running="68" waiting="19" ended="8" meanWaitingTime="0.21" meanTravelTime="61.62" halting="18" meanSpeed="18.02" meanSpeedRelative="0.65" duration="1513913147022"/>
    <step time="95.00" loaded="500" inserted="76" running="68" waiting="20" ended="8" meanWaitingTime="0.21" meanTravelTime="61.62" halting="18" meanSpeed="17.77" meanSpeedRelative="0.64" duration="1513913147022"/>
    <step time="96.00" loaded="500" inserted="76" running="68" waiting="21" ended="8" meanWaitingTime="0.21" meanTravelTime="61.62" halting="18" meanSpeed="17.67" meanSpeedRelative="0.64" duration="1513913147023"/>
    <step time="97.00" loaded="500" inserted="77" running="69" waiting="21" ended="8" meanWaitingTime="0.21" meanTravelTime="61.62" halting="20" meanSpeed="17.29" meanSpeedRelative="0.62" duration="1513913147023"/>
    <step time="98.00" loaded="500" inserted="78" running="70" waiting="21" ended="8" meanWaitingTime="0.21" meanTravelTime="61.62" halting="20" meanSpeed="16.87" meanSpeedRelative="0.61" duration="1513913147023"/>
    <step time="99.00" loaded="500" inserted="78" running="70" waiting="22" ended="8" meanWaitingTime="0.21" meanTravelTime="61.62" halting="19" meanSpeed="16.83" meanSpeedRelative="0.61" duration="1513913147023"/>
    <step time="100.00" loaded="500" inserted="78" running="70" waiting="23" ended="8" meanWaitingTime="0.21" meanTravelTime="61.62" halting="20" meanSpeed="16.73" meanSpeedRelative="0.60" duration="1513913147023"/>
    <step time="101.00" loaded="500" inserted="79" running="71" waiting="23" ended="8" meanWaitingTime="0.20" meanTravelTime="61.62" halting="23" meanSpeed="16.37" meanSpeedRelative="0.59" duration="1513913147023"/>
    <step time="102.00" loaded="500" inserted="79" running="71" waiting="24" ended="8" meanWaitingTime="0.20" meanTravelTime="61.62" halting="22" meanSpeed="16.29" meanSpeedRelative="0.59" duration="1513913147024"/>
    <step time="103.00" loaded="500" inserted="80" running="72" waiting="24" ended="8" meanWaitingTime="0.20" meanTravelTime="61.62" halting="24" meanSpeed="15.87" meanSpeedRelative="0.57" duration="1513913147024"/>
    <step time="104.00" loaded="500" inserted="81" running="73" waiting="24" ended="8" meanWaitingTime="0.20" meanTravelTime="61.62" halting="25" meanSpeed="15.53" meanSpeedRelative="0.56" duration="1513913147024"/>
    <step time="105.00" loaded="500" inserted="81" running="73" waiting="25" ended="8" meanWaitingTime="0.20" meanTravelTime="61.62" halting="25" meanSpeed="15.42" meanSpeedRelative="0.55" duration="1513913147024"/>
    <step time="106.00" loaded="500" inserted="82" running="74" waiting="25" ended="8" meanWaitingTime="0.20" meanTravelTime="61.62" halting="26" meanSpeed="15.02" meanSpeedRelative="0.54" duration="1513913147024"/>
    <step time="107.00" loaded="500" inserted="84" running="76" waiting="24" ended="8" meanWaitingTime="0.21" meanTravelTime="61.62" halting="28" meanSpeed="14.47" meanSpeedRelative="0.52" duration="1513913147024"/>
    <step time="108.00" loaded="500" inserted="84" running="76" waiting="25" ended="8" meanWaitingTime="0.21" meanTravelTime="61.62" halting="27" meanSpeed="14.30" meanSpeedRelative="0.51" duration="1513913147025"/>
    <step time="109.00" loaded="500" inserted="84" running="76" waiting="26" ended="8" meanWaitingTime="0.21" meanTravelTime="61.62" halting="27" meanSpeed="14.01" meanSpeedRelative="0.50" duration="1513913147025"/>
    <step time="110.00" loaded="500" inserted="85" running="77" waiting="26" ended="8" meanWaitingTime="0.21" meanTravelTime="61.62" halting="31" meanSpeed="13.71" meanSpeedRelative="0.49" duration="1513913147025"/>
    <step time="111.00" loaded="500" inserted="85" running="77" waiting="27" ended="8" meanWaitingTime="0.21" meanTravelTime="61.62" halting="30" meanSpeed="13.53" meanSpeedRelative="0.49" duration="1513913147025"/>
    <step time="112.00" loaded="500" inserted="86" running="78" waiting="27" ended="8" meanWaitingTime="0.21" meanTravelTime="61.62" halting="31" meanSpeed="13.15" meanSpeedRelative="0.47" duration="1513913147025"/>
    <step time="113.00" loaded="500" inserted="86" running="78" waiting="28" ended="8" meanWaitingTime="0.21" meanTravelTime="61.62" halting="32" meanSpeed="12.88" meanSpeedRelative="0.46" duration="1513913147025"/>
    <step time="114.00" loaded="500" inserted="87" running="79" waiting="28" ended="8" meanWaitingTime="0.21" meanTravelTime="61.62" halting="34" meanSpeed="12.50" meanSpeedRelative="0.45" duration="1513913147026"/>
    <step time="115.00" loaded="500" inserted="88" running="80" waiting="28" ended="8" meanWaitingTime="0.20" meanTravelTime="61.62" halting="35" meanSpeed="12.31" meanSpeedRelative="0.44" duration="1513913147026"/>
    <step time="116.00" loaded="500" inserted="88" running="80" waiting="29" ended="8" meanWaitingTime="0.20" meanTravelTime="61.62" halting="36" meanSpeed="12.25" meanSpeedRelative="0.44" duration="1513913147026"/>
    <step time="117.00" loaded="500" inserted="88" running="80" waiting="30" ended="8" meanWaitingTime="0.20" meanTravelTime="61.62" halting="34" meanSpeed="12.31" meanSpeedRelative="0.44" duration="1513913147026"/>
    <step time="118.00" loaded="500" inserted="88" running="80" waiting="31" ended="8" meanWaitingTime="0.20" meanTravelTime="61.62" halting="31" meanSpeed="12.45" meanSpeedRelative="0.45" duration="1513913147026"/>
    <step time="119.00" loaded="500" inserted="88" running="80" waiting="32" ended="8" meanWaitingTime="0.20" meanTravelTime="61.62" halting="31" meanSpeed="12.48" meanSpeedRelative="0.45" duration="1513913147027"/>
    <step time="120.00" loaded="500" inserted="89" running="81" waiting="32" ended="8" meanWaitingTime="0.20" meanTravelTime="61.62" halting="32" meanSpeed="12.35" meanSpeedRelative="0.44" duration="1513913147027"/>
    <step time="121.00" loaded="500" inserted="90" running="82" waiting="32" ended="8" meanWaitingTime="0.20" meanTravelTime="61.62" halting="30" meanSpeed="12.08" meanSpeedRelative="0.43" duration="1513913147027"/>
    <step time="122.00" loaded="500" inserted="90" running="82" waiting="33" ended="8" meanWaitingTime="0.20" meanTravelTime="61.62" halting="27" meanSpeed="11.97" meanSpeedRelative="0.43" duration="1513913147027"/>
    <step time="123.00" loaded="500" inserted="91" running="83" waiting="33" ended="8" meanWaitingTime="0.20" meanTravelTime="61.62" halting="29" meanSpeed="11.81" meanSpeedRelative="0.43" duration="1513913147027"/>
    <step time="124.00" loaded="500" inserted="91" running="83" waiting="34" ended="8" meanWaitingTime="0.20" meanTravelTime="61.62" halting="30" meanSpeed="11.76" meanSpeedRelative="0.42" duration="1513913147028"/>
    <step time="125.00" loaded="500" inserted="91" running="83" waiting="35" ended="8" meanWaitingTime="0.20" meanTravelTime="61.62" halting="33" meanSpeed="11.67" meanSpeedRelative="0.42" duration="1513913147028"/>
    <step time="126.00" loaded="500" inserted="92" running="84" waiting="35" ended="8" meanWaitingTime="0.20" meanTravelTime="61.62" halting="36" meanSpeed="11.64" meanSpeedRelative="0.42" duration="1513913147028"/>
    <step time="127.00" loaded="500" inserted="93" running="85" waiting="35" ended="8" meanWaitingTime="0.19" meanTravelTime="61.62" halting="37" meanSpeed="11.57" meanSpeedRelative="0.42" duration="1513913147028"/>
    <step time="128.00" loaded="500" inserted="93" running="84" waiting="36" ended="9" meanWaitingTime="0.19" meanTravelTime="66.33" halting="39" meanSpeed="11.53" meanSpeedRelative="0.42" duration="1513913147028"/>
    <step time="129.00" loaded="500" inserted="93" running="84" waiting="37" ended="9" meanWaitingTime="0.19" meanTravelTime="66.33" halting="39" meanSpeed="11.74" meanSpeedRelative="0.42" duration="1513913147029"/>
    <step time="130.00" loaded="500" inserted="93" running="83" waiting="38" ended="10" meanWaitingTime="0.19" meanTravelTime="65.30" halting="40" meanSpeed="11.77" meanSpeedRelative="0.42" duration="1513913147029"/>
    <step time="131.00" loaded="500" inserted="93" running="83" waiting="39" ended="10" meanWaitingTime="0.19" meanTravelTime="65.30" halting="41" meanSpeed="11.91" meanSpeedRelative="0.43" duration="1513913147029"/>
    <step time="132.00" loaded="500" inserted="93" running="82" waiting="40" ended="11" meanWaitingTime="0.19" meanTravelTime="64.73" halting="41" meanSpeed="11.92" meanSpeedRelative="0.43" duration="1513913147029"/>
    <step time="133.00" loaded="500" inserted="93" running="82" waiting="41" ended="11" meanWaitingTime="0.19" meanTravelTime="64.73" halting="42" meanSpeed="11.97" meanSpeedRelative="0.43" duration="1513913147029"/>