<?xml version="1.0" encoding="UTF-8"?>

<!-- generated on Fri Dec 22 11:25:46 2017 by SUMO Version v0_31_0+1587-c313078
<?xml version="1.0" encoding="UTF-8"?>

<configuration xmlns:xsi="http://www.w3.org/2001/XMLSchema-instance" xsi:noNamespaceSchemaLocation="http://sumo.dlr.de/xsd/sumoConfiguration.xsd">

    <input>
        <net-file value="tl2/2-intersections/2/twoIntersections.net.xml"/>
        <route-files value="tl2/2-intersections/2/twoIntersections.500.rou.xml"/>
        <additional-files value="tl2/2-intersections/2/tlLogic.add.xml"/>
    </input>

    <output>
        <summary-output value="tl2/2-intersections/2/output-emissions.xml"/>
        <tripinfo-output value="tl2/2-intersections/2/output-tripinfos.xml"/>
        <vehroute-output value="tl2/2-intersections/2/output-vehroutes.xml"/>
    </output>

    <time>
        <begin value="0"/>
        <end value="1600"/>
    </time>

    <processing>
        <route-steps value="-1"/>
        <time-to-teleport value="-1"/>
    </processing>

    <random_number>
        <seed value="23423"/>
    </random_number>

</configuration>
-->

<tripinfos xmlns:xsi="http://www.w3.org/2001/XMLSchema-instance" xsi:noNamespaceSchemaLocation="http://sumo.dlr.de/xsd/tripinfo_file.xsd">
    <tripinfo id="1" depart="1.00" departLane="-110#1_0" departPos="5.10" departSpeed="0.00" departDelay="0.00" arrival="61.00" arrivalLane="-50_0" arrivalPos="947.60" arrivalSpeed="26.75" duration="60.00" routeLength="1278.99" waitSteps="0" timeLoss="13.52" rerouteNo="0" devices="vehroute_1 tripinfo_1" vType="DEFAULT_VEHTYPE" speedFactor="1.00" vaporized=""/>
    <tripinfo id="19" depart="21.00" departLane="--110#2_0" departPos="5.10" departSpeed="0.00" departDelay="2.00" arrival="75.00" arrivalLane="--110#2_1" arrivalPos="1296.84" arrivalSpeed="27.43" duration="54.00" routeLength="1291.74" waitSteps="0" timeLoss="7.18" rerouteNo="0" devices="vehroute_19 tripinfo_19" vType="DEFAULT_VEHTYPE" speedFactor="1.00" vaporized=""/>
    <tripinfo id="27" depart="28.00" departLane="--103#0_0" departPos="5.10" departSpeed="0.00" departDelay="1.00" arrival="84.00" arrivalLane="--103#0_0" arrivalPos="1322.78" arrivalSpeed="27.27" duration="56.00" routeLength="1317.68" waitSteps="0" timeLoss="8.32" rerouteNo="0" devices="vehroute_27 tripinfo_27" vType="DEFAULT_VEHTYPE" speedFactor="1.00" vaporized=""/>
    <tripinfo id="31" depart="31.00" departLane="--110#2_0" departPos="5.10" departSpeed="0.00" departDelay="0.00" arrival="86.00" arrivalLane="--110#2_1" arrivalPos="1296.84" arrivalSpeed="27.47" duration="55.00" routeLength="1291.74" waitSteps="0" timeLoss="8.00" rerouteNo="0" devices="vehroute_31 tripinfo_31" vType="DEFAULT_VEHTYPE" speedFactor="1.00" vaporized=""/>
    <tripinfo id="33" depart="33.00" departLane="--103#1_0" departPos="5.10" departSpeed="0.00" departDelay="0.00" arrival="87.00" arrivalLane="-110#1_1" arrivalPos="336.49" arrivalSpeed="26.89" duration="54.00" routeLength="1258.87" waitSteps="0" timeLoss="8.16" rerouteNo="0" devices="vehroute_33 tripinfo_33" vType="DEFAULT_VEHTYPE" speedFactor="1.00" vaporized=""/>
    <tripinfo id="0" depart="0.00" departLane="-103#1_0" departPos="5.10" departSpeed="0.00" departDelay="0.00" arrival="88.00" arrivalLane="-110#1_1" arrivalPos="336.49" arrivalSpeed="27.30" duration="88.00" routeLength="2186.35" waitSteps="0" timeLoss="9.21" rerouteNo="0" devices="vehroute_0 tripinfo_0" vType="DEFAULT_VEHTYPE" speedFactor="1.00" vaporized=""/>
    <tripinfo id="30" depart="30.00" departLane="-51_0" departPos="5.10" departSpeed="0.00" departDelay="0.00" arrival="89.00" arrivalLane="-51_0" arrivalPos="1335.20" arrivalSpeed="14.42" duration="59.00" routeLength="1330.10" waitSteps="0" timeLoss="10.82" rerouteNo="0" devices="vehroute_30 tripinfo_30" vType="DEFAULT_VEHTYPE" speedFactor="1.00" vaporized=""/>
    <tripinfo id="24" depart="24.00" departLane="-110#1_0" departPos="5.10" departSpeed="0.00" departDelay="0.00" arrival="91.00" arrivalLane="-110#2_0" arrivalPos="1296.84" arrivalSpeed="27.76" duration="67.00" routeLength="1628.23" waitSteps="0" timeLoss="7.93" rerouteNo="0" devices="vehroute_24 tripinfo_24" vType="DEFAULT_VEHTYPE" speedFactor="1.00" vaporized=""/>
    <tripinfo id="21" depart="24.00" departLane="--110#2_0" departPos="5.10" departSpeed="0.00" departDelay="3.00" arrival="128.00" arrivalLane="--51_0" arrivalPos="1335.20" arrivalSpeed="27.40" duration="104.00" routeLength="2626.94" waitSteps="0" timeLoss="8.56" rerouteNo="0" devices="vehroute_21 tripinfo_21" vType="DEFAULT_VEHTYPE" speedFactor="1.00" vaporized=""/>
    <tripinfo id="74" depart="74.00" departLane="-103#0_0" departPos="5.10" departSpeed="0.00" departDelay="0.00" arrival="130.00" arrivalLane="-103#0_1" arrivalPos="1322.78" arrivalSpeed="26.57" duration="56.00" routeLength="1317.68" waitSteps="0" timeLoss="8.11" rerouteNo="0" devices="vehroute_74 tripinfo_74" vType="DEFAULT_VEHTYPE" speedFactor="1.00" vaporized=""/>
    <tripinfo id="73" depart="73.00" departLane="-51_0" departPos="5.10" departSpeed="0.00" departDelay="0.00" arrival="132.00" arrivalLane="-51_0" arrivalPos="1335.20" arrivalSpeed="16.54" duration="59.00" routeLength="1330.10" waitSteps="0" timeLoss="10.92" rerouteNo="0" devices="vehroute_73 tripinfo_73" vType="DEFAULT_VEHTYPE" speedFactor="1.00" vaporized=""/>
    <tripinfo id="45" depart="45.00" departLane="--50_0" departPos="5.10" departSpeed="0.00" departDelay="0.00" arrival="151.00" arrivalLane="--110#1_0" arrivalPos="336.49" arrivalSpeed="7.32" duration="106.00" routeLength="1278.99" waitSteps="29" timeLoss="59.91" rerouteNo="0" devices="vehroute_45 tripinfo_45" vType="DEFAULT_VEHTYPE" speedFactor="1.00" vaporized=""/>
    <tripinfo id="98" depart="98.00" departLane="-51_0" departPos="5.10" departSpeed="0.00" departDelay="0.00" arrival="158.00" arrivalLane="-51_0" arrivalPos="1335.20" arrivalSpeed="16.83" duration="60.00" routeLength="1330.10" waitSteps="0" timeLoss="11.89" rerouteNo="0" devices="vehroute_98 tripinfo_98" vType="DEFAULT_VEHTYPE" speedFactor="1.00" vaporized=""/>
    <tripinfo id="13" depart="13.00" departLane="-103#0_0" departPos="5.10" departSpeed="0.00" departDelay="0.00" arrival="161.00" arrivalLane="-110#0_0" arrivalPos="1178.65" arrivalSpeed="15.56" duration="148.00" routeLength="3674.98" waitSteps="0" timeLoss="15.43" rerouteNo="0" devices="vehroute_13 tripinfo_13" vType="DEFAULT_VEHTYPE" speedFactor="1.00" vaporized=""/>
    <tripinfo id="123" depart="123.00" departLane="--50_0" departPos="5.10" departSpeed="0.00" departDelay="0.00" arrival="165.00" arrivalLane="--50_1" arrivalPos="947.60" arrivalSpeed="27.44" duration="42.00" routeLength="942.50" waitSteps="0" timeLoss="7.32" rerouteNo="0" devices="vehroute_123 tripinfo_123" vType="DEFAULT_VEHTYPE" speedFactor="1.00" vaporized=""/>
    <tripinfo id="55" depart="55.00" departLane="-51_0" departPos="5.10" departSpeed="0.00" departDelay="0.00" arrival="171.00" arrivalLane="-110#2_0" arrivalPos="1296.84" arrivalSpeed="27.27" duration="116.00" routeLength="2626.94" waitSteps="0" timeLoss="20.93" rerouteNo="0" devices="vehroute_55 tripinfo_55" vType="DEFAULT_VEHTYPE" speedFactor="1.00" vaporized=""/>
    <tripinfo id="61" depart="62.00" departLane="--50_0" departPos="5.10" departSpeed="0.00" departDelay="1.00" arrival="173.00" arrivalLane="-110#2_0" arrivalPos="1296.84" arrivalSpeed="26.63" duration="111.00" routeLength="2239.34" waitSteps="11" timeLoss="29.64" rerouteNo="0" devices="vehroute_61 tripinfo_61" vType="DEFAULT_VEHTYPE" speedFactor="1.00" vaporized=""/>
    <tripinfo id="26" depart="26.00" departLane="--50_0" departPos="5.10" departSpeed="0.00" departDelay="0.00" arrival="186.00" arrivalLane="-103#1_0" arrivalPos="927.48" arrivalSpeed="27.40" duration="160.00" routeLength="2206.47" waitSteps="49" timeLoss="80.11" rerouteNo="0" devices="vehroute_26 tripinfo_26" vType="DEFAULT_VEHTYPE" speedFactor="1.00" vaporized=""/>
    <tripinfo id="103" depart="103.00" departLane="--50_0" departPos="5.10" departSpeed="0.00" departDelay="0.00" arrival="195.00" arrivalLane="--51_0" arrivalPos="1335.20" arrivalSpeed="26.86" duration="92.00" routeLength="2277.70" waitSteps="0" timeLoss="9.52" rerouteNo="0" devices="vehroute_103 tripinfo_103" vType="DEFAULT_VEHTYPE" speedFactor="1.00" vaporized=""/>
    <tripinfo id="22" depart="22.00" departLane="-110#0_0" departPos="5.10" departSpeed="0.00" departDelay="0.00" arrival="200.00" arrivalLane="--103#0_0" arrivalPos="1322.78" arrivalSpeed="26.67" duration="178.00" routeLength="2496.33" waitSteps="67" timeLoss="87.85" rerouteNo="0" devices="vehroute_22 tripinfo_22" vType="DEFAULT_VEHTYPE" speedFactor="1.00" vaporized=""/>
    <tripinfo id="17" depart="17.00" departLane="--110#0_0" departPos="5.10" departSpeed="0.00" departDelay="0.00" arrival="202.00" arrivalLane="--103#0_0" arrivalPos="1322.78" arrivalSpeed="27.24" duration="185.00" routeLength="3674.98" waitSteps="33" timeLoss="52.56" rerouteNo="0" devices="vehroute_17 tripinfo_17" vType="DEFAULT_VEHTYPE" speedFactor="1.00" vaporized=""/>
    <tripinfo id="43" depart="43.00" departLane="--110#0_0" departPos="5.10" departSpeed="0.00" departDelay="0.00" arrival="204.00" arrivalLane="--103#0_1" arrivalPos="1322.78" arrivalSpeed="27.01" duration="161.00" routeLength="3674.98" waitSteps="5" timeLoss="28.12" rerouteNo="0" devices="vehroute_43 tripinfo_43" vType="DEFAULT_VEHTYPE" speedFactor="1.00" vaporized=""/>
    <tripinfo id="8" depart="8.00" departLane="-110#1_0" departPos="5.10" departSpeed="0.00" departDelay="0.00" arrival="206.00" arrivalLane="--110#0_0" arrivalPos="1178.65" arrivalSpeed="27.73" duration="198.00" routeLength="1846.53" waitSteps="104" timeLoss="130.74" rerouteNo="0" devices="vehroute_8 tripinfo_8" vType="DEFAULT_VEHTYPE" speedFactor="1.00" vaporized=""/>
    <tripinfo id="16" depart="16.00" departLane="--50_0" departPos="5.10" departSpeed="0.00" departDelay="0.00" arrival="208.00" arrivalLane="--110#0_0" arrivalPos="1178.65" arrivalSpeed="27.48" duration="192.00" routeLength="2457.64" waitSteps="70" timeLoss="102.89" rerouteNo="0" devices="vehroute_16 tripinfo_16" vType="DEFAULT_VEHTYPE" speedFactor="1.00" vaporized=""/>
    <tripinfo id="156" depart="156.00" departLane="-110#0_0" departPos="5.10" departSpeed="0.00" departDelay="0.00" arrival="209.00" arrivalLane="-110#0_0" arrivalPos="1178.65" arrivalSpeed="13.91" duration="53.00" routeLength="1173.55" waitSteps="0" timeLoss="10.71" rerouteNo="0" devices="vehroute_156 tripinfo_156" vType="DEFAULT_VEHTYPE" speedFactor="1.00" vaporized=""/>
    <tripinfo id="56" depart="56.00" departLane="--50_0" departPos="5.10" departSpeed="0.00" departDelay="0.00" arrival="210.00" arrivalLane="--110#0_0" arrivalPos="1178.65" arrivalSpeed="27.15" duration="154.00" routeLength="2457.64" waitSteps="27" timeLoss="64.85" rerouteNo="0" devices="vehroute_56 tripinfo_56" vType="DEFAULT_VEHTYPE" speedFactor="1.00" vaporized=""/>
    <tripinfo id="66" depart="66.00" departLane="-110#0_0" departPos="5.10" departSpeed="0.00" departDelay="0.00" arrival="212.00" arrivalLane="-103#1_0" arrivalPos="927.48" arrivalSpeed="26.54" duration="146.00" routeLength="2101.03" waitSteps="43" timeLoss="69.43" rerouteNo="0" devices="vehroute_66 tripinfo_66" vType="DEFAULT_VEHTYPE" speedFactor="1.00" vaporized=""/>
    <tripinfo id="93" depart="93.00" departLane="--50_0" departPos="5.10" departSpeed="0.00" departDelay="0.00" arrival="220.00" arrivalLane="--103#0_0" arrivalPos="1322.78" arrivalSpeed="27.24" duration="127.00" routeLength="2601.77" waitSteps="5" timeLoss="33.31" rerouteNo="0" devices="vehroute_93 tripinfo_93" vType="DEFAULT_VEHTYPE" speedFactor="1.00" vaporized=""/>
    <tripinfo id="182" depart="182.00" departLane="--50_0" departPos="5.10" departSpeed="0.00" departDelay="0.00" arrival="223.00" arrivalLane="--50_1" arrivalPos="947.60" arrivalSpeed="27.01" duration="41.00" routeLength="942.50" waitSteps="0" timeLoss="7.04" rerouteNo="0" devices="vehroute_182 tripinfo_182" vType="DEFAULT_VEHTYPE" speedFactor="1.00" vaporized=""/>
    <tripinfo id="112" depart="112.00" departLane="-110#0_0" departPos="5.10" departSpeed="0.00" departDelay="0.00" arrival="224.00" arrivalLane="-103#1_0" arrivalPos="927.48" arrivalSpeed="26.94" duration="112.00" routeLength="2101.03" waitSteps="8" timeLoss="36.15" rerouteNo="0" devices="vehroute_112 tripinfo_112" vType="DEFAULT_VEHTYPE" speedFactor="1.00" vaporized=""/>
    <tripinfo id="121" depart="121.00" departLane="-110#0_0" departPos="5.10" departSpeed="0.00" departDelay="0.00" arrival="230.00" arrivalLane="-103#1_0" arrivalPos="927.48" arrivalSpeed="26.60" duration="109.00" routeLength="2101.03" waitSteps="6" timeLoss="32.93" rerouteNo="0" devices="vehroute_121 tripinfo_121" vType="DEFAULT_VEHTYPE" speedFactor="1.00" vaporized=""/>
    <tripinfo id="189" depart="189.00" departLane="-110#0_0" departPos="5.10" departSpeed="0.00" departDelay="0.00" arrival="241.00" arrivalLane="-110#0_0" arrivalPos="1178.65" arrivalSpeed="15.92" duration="52.00" routeLength="1173.55" waitSteps="0" timeLoss="9.63" rerouteNo="0" devices="vehroute_189 tripinfo_189" vType="DEFAULT_VEHTYPE" speedFactor="1.00" vaporized=""/>
    <tripinfo id="136" depart="136.00" departLane="-110#0_0" departPos="5.10" departSpeed="0.00" departDelay="0.00" arrival="241.00" arrivalLane="--103#0_0" arrivalPos="1322.78" arrivalSpeed="26.50" duration="105.00" routeLength="2496.33" waitSteps="0" timeLoss="14.35" rerouteNo="0" devices="vehroute_136 tripinfo_136" vType="DEFAULT_VEHTYPE" speedFactor="1.00" vaporized=""/>
    <tripinfo id="62" depart="62.00" departLane="-110#0_0" departPos="5.10" departSpeed="0.00" departDelay="0.00" arrival="249.00" arrivalLane="-110#1_1" arrivalPos="336.49" arrivalSpeed="5.76" duration="187.00" routeLength="1510.04" waitSteps="107" timeLoss="132.57" rerouteNo="0" devices="vehroute_62 tripinfo_62" vType="DEFAULT_VEHTYPE" speedFactor="1.00" vaporized=""/>
    <tripinfo id="63" depart="65.00" departLane="--50_0" departPos="5.10" departSpeed="0.00" departDelay="2.00" arrival="257.00" arrivalLane="-110#0_0" arrivalPos="1178.65" arrivalSpeed="13.49" duration="192.00" routeLength="3636.29" waitSteps="19" timeLoss="61.05" rerouteNo="0" devices="vehroute_63 tripinfo_63" vType="DEFAULT_VEHTYPE" speedFactor="1.00" vaporized=""/>
    <tripinfo id="29" depart="31.00" departLane="--110#0_0" departPos="5.10" departSpeed="0.00" departDelay="2.00" arrival="257.00" arrivalLane="-110#1_1" arrivalPos="336.49" arrivalSpeed="8.32" duration="226.00" routeLength="2688.69" waitSteps="87" timeLoss="129.16" rerouteNo="0" devices="vehroute_29 tripinfo_29" vType="DEFAULT_VEHTYPE" speedFactor="1.00" vaporized=""/>
    <tripinfo id="76" depart="76.00" departLane="-110#0_0" departPos="5.10" departSpeed="0.00" departDelay="0.00" arrival="259.00" arrivalLane="-110#1_1" arrivalPos="336.49" arrivalSpeed="10.44" duration="183.00" routeLength="1510.04" waitSteps="85" timeLoss="128.52" rerouteNo="0" devices="vehroute_76 tripinfo_76" vType="DEFAULT_VEHTYPE" speedFactor="1.00" vaporized=""/>
    <tripinfo id="3" depart="3.00" departLane="-51_0" departPos="5.10" departSpeed="0.00" departDelay="0.00" arrival="263.00" arrivalLane="-110#0_0" arrivalPos="1178.65" arrivalSpeed="14.76" duration="260.00" routeLength="4023.89" waitSteps="80" timeLoss="115.04" rerouteNo="0" devices="vehroute_3 tripinfo_3" vType="DEFAULT_VEHTYPE" speedFactor="1.00" vaporized=""/>
    <tripinfo id="106" depart="106.00" departLane="--50_0" departPos="5.10" departSpeed="0.00" departDelay="0.00" arrival="263.00" arrivalLane="--110#2_0" arrivalPos="1296.84" arrivalSpeed="12.04" duration="157.00" routeLength="3536.18" waitSteps="0" timeLoss="29.62" rerouteNo="0" devices="vehroute_106 tripinfo_106" vType="DEFAULT_VEHTYPE" speedFactor="1.00" vaporized=""/>
    <tripinfo id="158" depart="160.00" departLane="--103#1_0" departPos="5.10" departSpeed="0.00" departDelay="2.00" arrival="284.00" arrivalLane="--103#1_0" arrivalPos="927.48" arrivalSpeed="10.59" duration="124.00" routeLength="922.38" waitSteps="70" timeLoss="90.46" rerouteNo="0" devices="vehroute_158 tripinfo_158" vType="DEFAULT_VEHTYPE" speedFactor="1.00" vaporized=""/>
    <tripinfo id="97" depart="97.00" departLane="--50_0" departPos="5.10" departSpeed="0.00" departDelay="0.00" arrival="289.00" arrivalLane="--103#1_0" arrivalPos="927.48" arrivalSpeed="12.17" duration="192.00" routeLength="3133.95" waitSteps="54" timeLoss="79.04" rerouteNo="0" devices="vehroute_97 tripinfo_97" vType="DEFAULT_VEHTYPE" speedFactor="1.00" vaporized=""/>
    <tripinfo id="38" depart="38.00" departLane="--110#2_0" departPos="5.10" departSpeed="0.00" departDelay="0.00" arrival="290.00" arrivalLane="-50_0" arrivalPos="947.60" arrivalSpeed="27.37" duration="252.00" routeLength="2239.34" waitSteps="150" timeLoss="170.78" rerouteNo="0" devices="vehroute_38 tripinfo_38" vType="DEFAULT_VEHTYPE" speedFactor="1.00" vaporized=""/>
    <tripinfo id="225" depart="229.00" departLane="--103#1_0" departPos="5.10" departSpeed="0.00" departDelay="4.00" arrival="291.00" arrivalLane="--103#1_0" arrivalPos="927.48" arrivalSpeed="15.34" duration="62.00" routeLength="922.38" waitSteps="8" timeLoss="28.50" rerouteNo="0" devices="vehroute_225 tripinfo_225" vType="DEFAULT_VEHTYPE" speedFactor="1.00" vaporized=""/>
    <tripinfo id="7" depart="7.00" departLane="--110#1_0" departPos="5.10" departSpeed="0.00" departDelay="0.00" arrival="293.00" arrivalLane="-50_0" arrivalPos="947.60" arrivalSpeed="26.61" duration="286.00" routeLength="1615.48" waitSteps="191" timeLoss="227.51" rerouteNo="0" devices="vehroute_7 tripinfo_7" vType="DEFAULT_VEHTYPE" speedFactor="1.00" vaporized=""/>
    <tripinfo id="34" depart="34.00" departLane="-110#2_0" departPos="5.10" departSpeed="0.00" departDelay="0.00" arrival="296.00" arrivalLane="-50_1" arrivalPos="947.60" arrivalSpeed="27.22" duration="262.00" routeLength="3536.18" waitSteps="108" timeLoss="134.26" rerouteNo="0" devices="vehroute_34 tripinfo_34" vType="DEFAULT_VEHTYPE" speedFactor="1.00" vaporized=""/>
    <tripinfo id="140" depart="140.00" departLane="--110#2_0" departPos="5.10" departSpeed="0.00" departDelay="0.00" arrival="297.00" arrivalLane="-50_1" arrivalPos="947.60" arrivalSpeed="27.18" duration="157.00" routeLength="2239.34" waitSteps="54" timeLoss="76.37" rerouteNo="0" devices="vehroute_140 tripinfo_140" vType="DEFAULT_VEHTYPE" speedFactor="1.00" vaporized=""/>
    <tripinfo id="32" depart="32.00" departLane="-103#0_0" departPos="5.10" departSpeed="0.00" departDelay="0.00" arrival="298.00" arrivalLane="-110#1_0" arrivalPos="336.49" arrivalSpeed="16.42" duration="266.00" routeLength="1654.17" waitSteps="183" timeLoss="206.12" rerouteNo="0" devices="vehroute_32 tripinfo_32" vType="DEFAULT_VEHTYPE" speedFactor="1.00" vaporized=""/>
    <tripinfo id="4" depart="4.00" departLane="-50_0" departPos="5.10" departSpeed="0.00" departDelay="0.00" arrival="298.00" arrivalLane="--103#1_0" arrivalPos="927.48" arrivalSpeed="12.39" duration="294.00" routeLength="4081.55" waitSteps="101" timeLoss="146.98" rerouteNo="0" devices="vehroute_4 tripinfo_4" vType="DEFAULT_VEHTYPE" speedFactor="1.00" vaporized=""/>
    <tripinfo id="52" depart="52.00" departLane="--103#1_0" departPos="5.10" departSpeed="0.00" departDelay="0.00" arrival="303.00" arrivalLane="--51_0" arrivalPos="1335.20" arrivalSpeed="27.40" duration="251.00" routeLength="2594.07" waitSteps="139" timeLoss="156.98" rerouteNo="0" devices="vehroute_52 tripinfo_52" vType="DEFAULT_VEHTYPE" speedFactor="1.00" vaporized=""/>
    <tripinfo id="69" depart="69.00" departLane="-110#0_0" departPos="5.10" departSpeed="0.00" departDelay="0.00" arrival="307.00" arrivalLane="-110#2_0" arrivalPos="1296.84" arrivalSpeed="26.49" duration="238.00" routeLength="2806.88" waitSteps="95" timeLoss="136.24" rerouteNo="0" devices="vehroute_69 tripinfo_69" vType="DEFAULT_VEHTYPE" speedFactor="1.00" vaporized=""/>
    <tripinfo id="53" depart="53.00" departLane="--110#0_0" departPos="5.10" departSpeed="0.00" departDelay="0.00" arrival="312.00" arrivalLane="-110#2_0" arrivalPos="1296.84" arrivalSpeed="27.13" duration="259.00" routeLength="3985.53" waitSteps="65" timeLoss="115.11" rerouteNo="0" devices="vehroute_53 tripinfo_53" vType="DEFAULT_VEHTYPE" speedFactor="1.00" vaporized=""/>
    <tripinfo id="152" depart="154.00" departLane="-103#0_0" departPos="5.10" departSpeed="0.00" departDelay="2.00" arrival="314.00" arrivalLane="-103#1_1" arrivalPos="927.48" arrivalSpeed="27.12" duration="160.00" routeLength="2245.16" waitSteps="58" timeLoss="79.13" rerouteNo="0" devices="vehroute_152 tripinfo_152" vType="DEFAULT_VEHTYPE" speedFactor="1.00" vaporized=""/>
    <tripinfo id="6" depart="6.00" departLane="-103#0_0" departPos="5.10" departSpeed="0.00" departDelay="0.00" arrival="315.00" arrivalLane="-103#1_0" arrivalPos="927.48" arrivalSpeed="27.69" duration="309.00" routeLength="2245.16" waitSteps="208" timeLoss="227.25" rerouteNo="0" devices="vehroute_6 tripinfo_6" vType="DEFAULT_VEHTYPE" speedFactor="1.00" vaporized=""/>
    <tripinfo id="75" depart="75.00" departLane="--110#0_0" departPos="5.10" departSpeed="0.00" departDelay="0.00" arrival="315.00" arrivalLane="-110#2_0" arrivalPos="1296.84" arrivalSpeed="26.61" duration="240.00" routeLength="3985.53" waitSteps="53" timeLoss="96.10" rerouteNo="0" devices="vehroute_75 tripinfo_75" vType="DEFAULT_VEHTYPE" speedFactor="1.00" vaporized=""/>
    <tripinfo id="126" depart="126.00" departLane="-110#0_0" departPos="5.10" departSpeed="0.00" departDelay="0.00" arrival="315.00" arrivalLane="--51_0" arrivalPos="1335.20" arrivalSpeed="27.19" duration="189.00" routeLength="2845.24" waitSteps="45" timeLoss="85.90" rerouteNo="0" devices="vehroute_126 tripinfo_126" vType="DEFAULT_VEHTYPE" speedFactor="1.00" vaporized=""/>
    <tripinfo id="54" depart="54.00" departLane="--110#2_0" departPos="5.10" departSpeed="0.00" departDelay="0.00" arrival="320.00" arrivalLane="--51_0" arrivalPos="1335.20" arrivalSpeed="27.36" duration="266.00" routeLength="2626.94" waitSteps="148" timeLoss="171.33" rerouteNo="0" devices="vehroute_54 tripinfo_54" vType="DEFAULT_VEHTYPE" speedFactor="1.00" vaporized=""/>
    <tripinfo id="41" depart="41.00" departLane="--103#1_0" departPos="5.10" departSpeed="0.00" departDelay="0.00" arrival="324.00" arrivalLane="--110#0_0" arrivalPos="1178.65" arrivalSpeed="26.93" duration="283.00" routeLength="2101.03" waitSteps="189" timeLoss="206.71" rerouteNo="0" devices="vehroute_41 tripinfo_41" vType="DEFAULT_VEHTYPE" speedFactor="1.00" vaporized=""/>
    <tripinfo id="20" depart="20.00" departLane="-110#2_0" departPos="5.10" departSpeed="0.00" departDelay="0.00" arrival="326.00" arrivalLane="--51_0" arrivalPos="1335.20" arrivalSpeed="26.88" duration="306.00" routeLength="3923.78" waitSteps="136" timeLoss="164.18" rerouteNo="0" devices="vehroute_20 tripinfo_20" vType="DEFAULT_VEHTYPE" speedFactor="1.00" vaporized=""/>
    <tripinfo id="107" depart="107.00" departLane="--110#2_0" departPos="5.10" departSpeed="0.00" departDelay="0.00" arrival="329.00" arrivalLane="--51_0" arrivalPos="1335.20" arrivalSpeed="27.05" duration="222.00" routeLength="2626.94" waitSteps="99" timeLoss="126.87" rerouteNo="0" devices="vehroute_107 tripinfo_107" vType="DEFAULT_VEHTYPE" speedFactor="1.00" vaporized=""/>
    <tripinfo id="145" depart="147.00" departLane="--103#1_0" departPos="5.10" departSpeed="0.00" departDelay="2.00" arrival="330.00" arrivalLane="--103#0_0" arrivalPos="1322.78" arrivalSpeed="27.45" duration="183.00" routeLength="2245.16" waitSteps="82" timeLoss="101.33" rerouteNo="0" devices="vehroute_145 tripinfo_145" vType="DEFAULT_VEHTYPE" speedFactor="1.00" vaporized=""/>
    <tripinfo id="60" depart="275.00" departLane="-110#1_0" departPos="5.10" departSpeed="0.00" departDelay="215.00" arrival="336.00" arrivalLane="-50_1" arrivalPos="947.60" arrivalSpeed="26.96" duration="61.00" routeLength="1278.99" waitSteps="0" timeLoss="14.60" rerouteNo="0" devices="vehroute_60 tripinfo_60" vType="DEFAULT_VEHTYPE" speedFactor="1.00" vaporized=""/>
    <tripinfo id="174" depart="174.00" departLane="--103#1_0" departPos="5.10" departSpeed="0.00" departDelay="0.00" arrival="337.00" arrivalLane="--103#0_0" arrivalPos="1322.78" arrivalSpeed="26.55" duration="163.00" routeLength="2245.16" waitSteps="56" timeLoss="81.35" rerouteNo="0" devices="vehroute_174 tripinfo_174" vType="DEFAULT_VEHTYPE" speedFactor="1.00" vaporized=""/>
    <tripinfo id="221" depart="221.00" departLane="--110#2_0" departPos="5.10" departSpeed="0.00" departDelay="0.00" arrival="339.00" arrivalLane="--51_0" arrivalPos="1335.20" arrivalSpeed="26.97" duration="118.00" routeLength="2626.94" waitSteps="0" timeLoss="23.10" rerouteNo="0" devices="vehroute_221 tripinfo_221" vType="DEFAULT_VEHTYPE" speedFactor="1.00" vaporized=""/>
    <tripinfo id="246" depart="246.00" departLane="-103#0_0" departPos="5.10" departSpeed="0.00" departDelay="0.00" arrival="351.00" arrivalLane="--110#0_0" arrivalPos="1178.65" arrivalSpeed="26.99" duration="105.00" routeLength="2496.33" waitSteps="0" timeLoss="14.74" rerouteNo="0" devices="vehroute_246 tripinfo_246" vType="DEFAULT_VEHTYPE" speedFactor="1.00" vaporized=""/>
    <tripinfo id="12" depart="12.00" departLane="--110#2_0" departPos="5.10" departSpeed="0.00" departDelay="0.00" arrival="366.00" arrivalLane="-51_0" arrivalPos="1335.20" arrivalSpeed="5.42" duration="354.00" routeLength="3962.14" waitSteps="191" timeLoss="211.30" rerouteNo="0" devices="vehroute_12 tripinfo_12" vType="DEFAULT_VEHTYPE" speedFactor="1.00" vaporized=""/>
    <tripinfo id="135" depart="135.00" departLane="-51_0" departPos="5.10" departSpeed="0.00" departDelay="0.00" arrival="368.00" arrivalLane="-51_0" arrivalPos="1335.20" arrivalSpeed="7.01" duration="233.00" routeLength="1330.10" waitSteps="167" timeLoss="185.10" rerouteNo="0" devices="vehroute_135 tripinfo_135" vType="DEFAULT_VEHTYPE" speedFactor="1.00" vaporized=""/>
    <tripinfo id="57" depart="59.00" departLane="--50_0" departPos="5.10" departSpeed="0.00" departDelay="2.00" arrival="370.00" arrivalLane="-51_0" arrivalPos="1335.20" arrivalSpeed="9.09" duration="311.00" routeLength="3612.90" waitSteps="149" timeLoss="180.90" rerouteNo="0" devices="vehroute_57 tripinfo_57" vType="DEFAULT_VEHTYPE" speedFactor="1.00" vaporized=""/>
    <tripinfo id="50" depart="50.00" departLane="-110#1_0" departPos="5.10" departSpeed="0.00" departDelay="0.00" arrival="377.00" arrivalLane="-51_0" arrivalPos="1335.20" arrivalSpeed="13.91" duration="327.00" routeLength="3001.79" waitSteps="187" timeLoss="218.47" rerouteNo="0" devices="vehroute_50 tripinfo_50" vType="DEFAULT_VEHTYPE" speedFactor="1.00" vaporized=""/>
    <tripinfo id="14" depart="14.00" departLane="--110#0_0" departPos="5.10" departSpeed="0.00" departDelay="0.00" arrival="380.00" arrivalLane="-51_0" arrivalPos="1335.20" arrivalSpeed="14.93" duration="366.00" routeLength="5359.09" waitSteps="123" timeLoss="172.79" rerouteNo="0" devices="vehroute_14 tripinfo_14" vType="DEFAULT_VEHTYPE" speedFactor="1.00" vaporized=""/>
    <tripinfo id="42" depart="42.00" departLane="-110#0_0" departPos="5.10" departSpeed="0.00" departDelay="0.00" arrival="382.00" arrivalLane="-51_0" arrivalPos="1335.20" arrivalSpeed="16.60" duration="340.00" routeLength="4180.44" waitSteps="134" timeLoss="189.07" rerouteNo="0" devices="vehroute_42 tripinfo_42" vType="DEFAULT_VEHTYPE" speedFactor="1.00" vaporized=""/>
    <tripinfo id="15" depart="15.00" departLane="-110#0_0" departPos="5.10" departSpeed="0.00" departDelay="0.00" arrival="383.00" arrivalLane="-51_0" arrivalPos="1335.20" arrivalSpeed="15.91" duration="368.00" routeLength="4180.44" waitSteps="168" timeLoss="217.50" rerouteNo="0" devices="vehroute_15 tripinfo_15" vType="DEFAULT_VEHTYPE" speedFactor="1.00" vaporized=""/>
    <tripinfo id="79" depart="79.00" departLane="-110#0_0" departPos="5.10" departSpeed="0.00" departDelay="0.00" arrival="384.00" arrivalLane="--50_1" arrivalPos="947.60" arrivalSpeed="7.49" duration="305.00" routeLength="3405.24" waitSteps="115" timeLoss="182.31" rerouteNo="0" devices="vehroute_79 tripinfo_79" vType="DEFAULT_VEHTYPE" speedFactor="1.00" vaporized=""/>
    <tripinfo id="65" depart="65.00" departLane="--110#2_0" departPos="5.10" departSpeed="0.00" departDelay="0.00" arrival="385.00" arrivalLane="-51_0" arrivalPos="1335.20" arrivalSpeed="16.58" duration="320.00" routeLength="3962.14" waitSteps="136" timeLoss="177.15" rerouteNo="0" devices="vehroute_65 tripinfo_65" vType="DEFAULT_VEHTYPE" speedFactor="1.00" vaporized=""/>
    <tripinfo id="28" depart="28.00" departLane="--110#0_0" departPos="5.10" departSpeed="0.00" departDelay="0.00" arrival="387.00" arrivalLane="-51_0" arrivalPos="1335.20" arrivalSpeed="18.71" duration="359.00" routeLength="5359.09" waitSteps="99" timeLoss="165.65" rerouteNo="0" devices="vehroute_28 tripinfo_28" vType="DEFAULT_VEHTYPE" speedFactor="1.00" vaporized=""/>
    <tripinfo id="11" depart="11.00" departLane="-51_0" departPos="5.10" departSpeed="0.00" departDelay="0.00" arrival="404.00" arrivalLane="-50_0" arrivalPos="947.60" arrivalSpeed="27.21" duration="393.00" routeLength="2277.70" waitSteps="287" timeLoss="310.30" rerouteNo="0" devices="vehroute_11 tripinfo_11" vType="DEFAULT_VEHTYPE" speedFactor="1.00" vaporized=""/>
    <tripinfo id="248" depart="248.00" departLane="-51_0" departPos="5.10" departSpeed="0.00" departDelay="0.00" arrival="422.00" arrivalLane="-110#2_0" arrivalPos="1296.84" arrivalSpeed="27.08" duration="174.00" routeLength="2626.94" waitSteps="58" timeLoss="79.39" rerouteNo="0" devices="vehroute_248 tripinfo_248" vType="DEFAULT_VEHTYPE" speedFactor="1.00" vaporized=""/>
    <tripinfo id="261" depart="261.00" departLane="-51_0" departPos="5.10" departSpeed="0.00" departDelay="0.00" arrival="425.00" arrivalLane="-110#2_0" arrivalPos="1296.84" arrivalSpeed="27.30" duration="164.00" routeLength="2626.94" waitSteps="46" timeLoss="68.93" rerouteNo="0" devices="vehroute_261 tripinfo_261" vType="DEFAULT_VEHTYPE" speedFactor="1.00" vaporized=""/>