<?xml version="1.0" encoding="UTF-8"?>

<!-- generated on Fri Dec 22 11:25:46 2017 by SUMO Version v0_31_0+1587-c313078
<?xml version="1.0" encoding="UTF-8"?>

<configuration xmlns:xsi="http://www.w3.org/2001/XMLSchema-instance" xsi:noNamespaceSchemaLocation="http://sumo.dlr.de/xsd/sumoConfiguration.xsd">

    <input>
        <net-file value="tl2/2-intersections/2/twoIntersections.net.xml"/>
        <route-files value="tl2/2-intersections/2/twoIntersections.500.rou.xml"/>
        <additional-files value="tl2/2-intersections/2/tlLogic.add.xml"/>
    </input>

    <output>
        <summary-output value="tl2/2-intersections/2/output-emissions.xml"/>
        <tripinfo-output value="tl2/2-intersections/2/output-tripinfos.xml"/>
        <vehroute-output value="tl2/2-intersections/2/output-vehroutes.xml"/>
    </output>

    <time>
        <begin value="0"/>
        <end value="1600"/>
    </time>

    <processing>
        <route-steps value="-1"/>
        <time-to-teleport value="-1"/>
    </processing>

    <random_number>
        <seed value="23423"/>
    </random_number>

</configuration>
-->

<routes xmlns:xsi="http://www.w3.org/2001/XMLSchema-instance" xsi:noNamespaceSchemaLocation="http://sumo.dlr.de/xsd/routes_file.xsd">
    <vehicle id="1" depart="1.00" arrival="61.00">
        <route edges="-110#1 -50"/>
    </vehicle>

    <vehicle id="19" depart="21.00" arrival="75.00">
        <route edges="--110#2"/>
    </vehicle>

    <vehicle id="27" depart="28.00" arrival="84.00">
        <route edges="--103#0"/>
    </vehicle>

    <vehicle id="31" depart="31.00" arrival="86.00">
        <route edges="--110#2"/>
    </vehicle>

    <vehicle id="33" depart="33.00" arrival="87.00">
        <route edges="--103#1 -110#1"/>
    </vehicle>

    <vehicle id="0" depart="0.00" arrival="88.00">
        <route edges="-103#1 --103#1 -110#1"/>
    </vehicle>

    <vehicle id="30" depart="30.00" arrival="89.00">
        <route edges="-51"/>
    </vehicle>

    <vehicle id="24" depart="24.00" arrival="91.00">
        <route edges="-110#1 -110#2"/>
    </vehicle>

    <vehicle id="21" depart="24.00" arrival="128.00">
        <route edges="--110#2 --51"/>
    </vehicle>

    <vehicle id="74" depart="74.00" arrival="130.00">
        <route edges="-103#0"/>
    </vehicle>

    <vehicle id="73" depart="73.00" arrival="132.00">
        <route edges="-51"/>
    </vehicle>

    <vehicle id="45" depart="45.00" arrival="151.00">
        <route edges="--50 --110#1"/>
    </vehicle>

    <vehicle id="98" depart="98.00" arrival="158.00">
        <route edges="-51"/>
    </vehicle>

    <vehicle id="13" depart="13.00" arrival="161.00">
        <route edges="-103#0 --110#0 -110#0"/>
    </vehicle>

    <vehicle id="123" depart="123.00" arrival="165.00">
        <route edges="--50"/>
    </vehicle>

    <vehicle id="55" depart="55.00" arrival="171.00">
        <route edges="-51 -110#2"/>
    </vehicle>

    <vehicle id="61" depart="62.00" arrival="173.00">
        <route edges="--50 -110#2"/>
    </vehicle>

    <vehicle id="26" depart="26.00" arrival="186.00">
        <route edges="--50 --110#1 -103#1"/>
    </vehicle>

    <vehicle id="103" depart="103.00" arrival="195.00">
        <route edges="--50 --51"/>
    </vehicle>

    <vehicle id="22" depart="22.00" arrival="200.00">
        <route edges="-110#0 --103#0"/>
    </vehicle>

    <vehicle id="17" depart="17.00" arrival="202.00">
        <route edges="--110#0 -110#0 --103#0"/>
    </vehicle>

    <vehicle id="43" depart="43.00" arrival="204.00">
        <route edges="--110#0 -110#0 --103#0"/>
    </vehicle>

    <vehicle id="8" depart="8.00" arrival="206.00">
        <route edges="-110#1 --110#1 --110#0"/>
    </vehicle>

    <vehicle id="16" depart="16.00" arrival="208.00">
        <route edges="--50 --110#1 --110#0"/>
    </vehicle>

    <vehicle id="156" depart="156.00" arrival="209.00">
        <route edges="-110#0"/>
    </vehicle>

    <vehicle id="56" depart="56.00" arrival="210.00">
        <route edges="--50 --110#1 --110#0"/>
    </vehicle>

    <vehicle id="66" depart="66.00" arrival="212.00">
        <route edges="-110#0 -103#1"/>
    </vehicle>

    <vehicle id="93" depart="93.00" arrival="220.00">
        <route edges="--50 --110#1 --103#0"/>
    </vehicle>

    <vehicle id="182" depart="182.00" arrival="223.00">
        <route edges="--50"/>
    </vehicle>

    <vehicle id="112" depart="112.00" arrival="224.00">
        <route edges="-110#0 -103#1"/>
    </vehicle>

    <vehicle id="121" depart="121.00" arrival="230.00">
        <route edges="-110#0 -103#1"/>
    </vehicle>

    <vehicle id="189" depart="189.00" arrival="241.00">
        <route edges="-110#0"/>
    </vehicle>

    <vehicle id="136" depart="136.00" arrival="241.00">
        <route edges="-110#0 --103#0"/>
    </vehicle>

    <vehicle id="62" depart="62.00" arrival="249.00">
        <route edges="-110#0 -110#1"/>
    </vehicle>

    <vehicle id="63" depart="65.00" arrival="257.00">
        <route edges="--50 --110#1 --110#0 -110#0"/>
    </vehicle>

    <vehicle id="29" depart="31.00" arrival="257.00">
        <route edges="--110#0 -110#0 -110#1"/>
    </vehicle>

    <vehicle id="76" depart="76.00" arrival="259.00">
        <route edges="-110#0 -110#1"/>
    </vehicle>

    <vehicle id="3" depart="3.00" arrival="263.00">
        <route edges="-51 --110#1 --110#0 -110#0"/>
    </vehicle>

    <vehicle id="106" depart="106.00" arrival="263.00">
        <route edges="--50 -110#2 --110#2"/>
    </vehicle>

    <vehicle id="158" depart="160.00" arrival="284.00">
        <route edges="--103#1"/>
    </vehicle>

    <vehicle id="97" depart="97.00" arrival="289.00">
        <route edges="--50 --110#1 -103#1 --103#1"/>
    </vehicle>

    <vehicle id="38" depart="38.00" arrival="290.00">
        <route edges="--110#2 -50"/>
    </vehicle>

    <vehicle id="225" depart="229.00" arrival="291.00">
        <route edges="--103#1"/>
    </vehicle>

    <vehicle id="7" depart="7.00" arrival="293.00">
        <route edges="--110#1 -110#1 -50"/>
    </vehicle>

    <vehicle id="34" depart="34.00" arrival="296.00">
        <route edges="-110#2 --110#2 -50"/>
    </vehicle>

    <vehicle id="140" depart="140.00" arrival="297.00">
        <route edges="--110#2 -50"/>
    </vehicle>

    <vehicle id="32" depart="32.00" arrival="298.00">
        <route edges="-103#0 -110#1"/>
    </vehicle>

    <vehicle id="4" depart="4.00" arrival="298.00">
        <route edges="-50 --50 --110#1 -103#1 --103#1"/>
    </vehicle>

    <vehicle id="52" depart="52.00" arrival="303.00">
        <route edges="--103#1 -110#1 --51"/>
    </vehicle>

    <vehicle id="69" depart="69.00" arrival="307.00">
        <route edges="-110#0 -110#1 -110#2"/>
    </vehicle>

    <vehicle id="53" depart="53.00" arrival="312.00">
        <route edges="--110#0 -110#0 -110#1 -110#2"/>
    </vehicle>

    <vehicle id="152" depart="154.00" arrival="314.00">
        <route edges="-103#0 -103#1"/>
    </vehicle>

    <vehicle id="6" depart="6.00" arrival="315.00">
        <route edges="-103#0 -103#1"/>
    </vehicle>

    <vehicle id="75" depart="75.00" arrival="315.00">
        <route edges="--110#0 -110#0 -110#1 -110#2"/>
    </vehicle>

    <vehicle id="126" depart="126.00" arrival="315.00">
        <route edges="-110#0 -110#1 --51"/>
    </vehicle>

    <vehicle id="54" depart="54.00" arrival="320.00">
        <route edges="--110#2 --51"/>
    </vehicle>

    <vehicle id="41" depart="41.00" arrival="324.00">
        <route edges="--103#1 --110#0"/>
    </vehicle>

    <vehicle id="20" depart="20.00" arrival="326.00">
        <route edges="-110#2 --110#2 --51"/>
    </vehicle>

    <vehicle id="107" depart="107.00" arrival="329.00">
        <route edges="--110#2 --51"/>
    </vehicle>

    <vehicle id="145" depart="147.00" arrival="330.00">
        <route edges="--103#1 --103#0"/>
    </vehicle>

    <vehicle id="60" depart="275.00" arrival="336.00">
        <route edges="-110#1 -50"/>
    </vehicle>

    <vehicle id="174" depart="174.00" arrival="337.00">
        <route edges="--103#1 --103#0"/>
    </vehicle>

    <vehicle id="221" depart="221.00" arrival="339.00">
        <route edges="--110#2 --51"/>
    </vehicle>

    <vehicle id="246" depart="246.00" arrival="351.00">
        <route edges="-103#0 --110#0"/>
    </vehicle>

    <vehicle id="12" depart="12.00" arrival="366.00">
        <route edges="--110#2 --51 -51"/>
    </vehicle>

    <vehicle id="135" depart="135.00" arrival="368.00">
        <route edges="-51"/>
    </vehicle>

    <vehicle id="57" depart="59.00" arrival="370.00">
        <route edges="--50 --51 -51"/>
    </vehicle>

    <vehicle id="50" depart="50.00" arrival="377.00">
        <route edges="-110#1 --51 -51"/>
    </vehicle>

    <vehicle id="14" depart="14.00" arrival="380.00">
        <route edges="--110#0 -110#0 -110#1 --51 -51"/>
    </vehicle>

    <vehicle id="42" depart="42.00" arrival="382.00">
        <route edges="-110#0 -110#1 --51 -51"/>
    </vehicle>

    <vehicle id="15" depart="15.00" arrival="383.00">
        <route edges="-110#0 -110#1 --51 -51"/>
    </vehicle>

    <vehicle id="79" depart="79.00" arrival="384.00">
        <route edges="-110#0 -110#1 -50 --50"/>
    </vehicle>

    <vehicle id="65" depart="65.00" arrival="385.00">
        <route edges="--110#2 --51 -51"/>
    </vehicle>

    <vehicle id="28" depart="28.00" arrival="387.00">
        <route edges="--110#0 -110#0 -110#1 --51 -51"/>
    </vehicle>

    <vehicle id="11" depart="11.00" arrival="404.00">
        <route edges="-51 -50"/>
    </vehicle>

    <vehicle id="248" depart="248.00" arrival="422.00">
        <route edges="-51 -110#2"/>
    </vehicle>

    <vehicle id="261" depart="261.00" arrival="425.00">
        <route edges="-51 -110#2"/>
    </vehicle>

    <vehicle id="278" depart="278.00" arrival="426.00">
        <route edges="-110#0"/>
    </vehicle>

    <vehicle id="68" depart="252.00" arrival="428.00">
        <route edges="--51 -51 -110#2"/>
    </vehicle>

    <vehicle id="157" depart="157.00" arrival="430.00">
        <route edges="--103#1 --110#0 -110#0"/>
    </vehicle>

    <vehicle id="190" depart="190.00" arrival="432.00">
        <route edges="--103#1 --110#0 -110#0"/>
    </vehicle>

    <vehicle id="257" depart="257.00" arrival="437.00">
        <route edges="--50 --110#1"/>
    </vehicle>

    <vehicle id="159" depart="275.00" arrival="439.00">
        <route edges="-50 --50 --51"/>
    </vehicle>

    <vehicle id="176" depart="278.00" arrival="441.00">
        <route edges="-50 --50 --51"/>
    </vehicle>

    <vehicle id="207" depart="284.00" arrival="442.00">
        <route edges="-50 --50 --51"/>
    </vehicle>

    <vehicle id="5" depart="5.00" arrival="443.00">
        <route edges="--51 -51 --110#1"/>
    </vehicle>

    <vehicle id="323" depart="323.00" arrival="444.00">
        <route edges="--50 --51"/>
    </vehicle>

    <vehicle id="250" depart="293.00" arrival="445.00">
        <route edges="-50 --50 --51"/>
    </vehicle>

    <vehicle id="18" depart="18.00" arrival="460.00">
        <route edges="--110#2 --110#1 -103#1"/>
    </vehicle>

    <vehicle id="120" depart="120.00" arrival="465.00">
        <route edges="--50 --110#1 -103#1"/>
    </vehicle>

    <vehicle id="219" depart="219.00" arrival="468.00">
        <route edges="--50 --110#1 -103#1"/>
    </vehicle>

    <vehicle id="40" depart="41.00" arrival="469.00">
        <route edges="--110#2 --110#1 --110#0"/>
    </vehicle>

    <vehicle id="280" depart="280.00" arrival="474.00">
        <route edges="--50 --110#1 -103#1"/>
    </vehicle>

    <vehicle id="229" depart="229.00" arrival="476.00">
        <route edges="-110#0 --103#0"/>
    </vehicle>

    <vehicle id="58" depart="58.00" arrival="477.00">
        <route edges="-51 --110#1 -103#1"/>
    </vehicle>

    <vehicle id="88" depart="291.00" arrival="485.00">
        <route edges="--110#0 -110#0 --103#0"/>
    </vehicle>

    <vehicle id="87" depart="87.00" arrival="489.00">
        <route edges="--110#2 --110#1 --110#0"/>
    </vehicle>

    <vehicle id="142" depart="142.00" arrival="498.00">
        <route edges="--50 --110#1 --110#0"/>
    </vehicle>

    <vehicle id="36" depart="36.00" arrival="498.00">
        <route edges="--103#1 -110#1 -110#2 --110#2"/>
    </vehicle>

    <vehicle id="335" depart="335.00" arrival="500.00">
        <route edges="--110#2"/>
    </vehicle>

    <vehicle id="211" depart="211.00" arrival="501.00">
        <route edges="--110#2 --110#1 --103#0"/>
    </vehicle>

    <vehicle id="110" depart="110.00" arrival="502.00">
        <route edges="-51 -110#2 --110#2"/>
    </vehicle>

    <vehicle id="196" depart="198.00" arrival="506.00">
        <route edges="--50 -110#2 --110#2"/>
    </vehicle>

    <vehicle id="232" depart="234.00" arrival="509.00">
        <route edges="--50 -110#2 --110#2"/>
    </vehicle>

    <vehicle id="332" depart="332.00" arrival="511.00">
        <route edges="--50 -110#2 --110#2"/>
    </vehicle>

    <vehicle id="260" depart="260.00" arrival="514.00">
        <route edges="--110#2 --110#1"/>
    </vehicle>

    <vehicle id="300" depart="301.00" arrival="517.00">
        <route edges="--110#2 --110#1"/>
    </vehicle>

    <vehicle id="203" depart="203.00" arrival="526.00">
        <route edges="--50 --110#1 --103#0"/>
    </vehicle>

    <vehicle id="210" depart="210.00" arrival="528.00">
        <route edges="--50 --110#1 --103#0"/>
    </vehicle>

    <vehicle id="127" depart="127.00" arrival="532.00">
        <route edges="--110#2 --110#1 -110#1"/>
    </vehicle>

    <vehicle id="310" depart="310.00" arrival="532.00">
        <route edges="-110#0 -110#1"/>
    </vehicle>

    <vehicle id="70" depart="70.00" arrival="535.00">
        <route edges="--110#2 --110#1 --110#0 -110#0"/>
    </vehicle>

    <vehicle id="364" depart="502.00" arrival="543.00">
        <route edges="-50"/>
    </vehicle>

    <vehicle id="191" depart="191.00" arrival="544.00">
        <route edges="--110#2 --110#1 --110#0 -110#0"/>
    </vehicle>

    <vehicle id="2" depart="2.00" arrival="547.00">
        <route edges="--103#0 -103#0 -110#1 --51"/>
    </vehicle>

    <vehicle id="25" depart="25.00" arrival="548.00">
        <route edges="--103#0 -103#0 -110#1 -110#2"/>
    </vehicle>

    <vehicle id="10" depart="10.00" arrival="550.00">
        <route edges="--103#0 -103#0 -110#1 -50"/>
    </vehicle>

    <vehicle id="251" depart="496.00" arrival="552.00">
        <route edges="--51"/>
    </vehicle>

    <vehicle id="47" depart="47.00" arrival="553.00">
        <route edges="--103#0 -103#0 -110#1 -50"/>
    </vehicle>

    <vehicle id="101" depart="101.00" arrival="554.00">
        <route edges="--103#1 --103#0 -103#0"/>
    </vehicle>

    <vehicle id="321" depart="321.00" arrival="554.00">
        <route edges="--103#1"/>
    </vehicle>

    <vehicle id="154" depart="157.00" arrival="556.00">
        <route edges="-103#0 -103#1 --103#1"/>
    </vehicle>

    <vehicle id="281" depart="281.00" arrival="558.00">
        <route edges="-110#0 --103#0 -103#0"/>
    </vehicle>

    <vehicle id="371" depart="371.00" arrival="558.00">
        <route edges="--103#1"/>
    </vehicle>

    <vehicle id="71" depart="303.00" arrival="559.00">
        <route edges="-110#1 -110#2"/>
    </vehicle>

    <vehicle id="48" depart="50.00" arrival="559.00">
        <route edges="--103#0 -103#0 -110#1 --51"/>
    </vehicle>

    <vehicle id="297" depart="297.00" arrival="560.00">
        <route edges="-110#0 --103#0 -103#0"/>
    </vehicle>

    <vehicle id="151" depart="151.00" arrival="561.00">
        <route edges="-103#0 -110#1 -50"/>
    </vehicle>

    <vehicle id="46" depart="46.00" arrival="561.00">
        <route edges="-103#1 --103#1 -110#1 -110#2"/>
    </vehicle>

    <vehicle id="115" depart="115.00" arrival="562.00">
        <route edges="--110#2 --110#1 --103#0 -103#0"/>
    </vehicle>

    <vehicle id="51" depart="51.00" arrival="563.00">
        <route edges="-103#1 --103#1 -110#1 -110#2"/>
    </vehicle>

    <vehicle id="37" depart="37.00" arrival="566.00">
        <route edges="-103#1 --103#1 -110#1 -50"/>
    </vehicle>

    <vehicle id="92" depart="92.00" arrival="566.00">
        <route edges="--103#1 -110#1 -110#2"/>
    </vehicle>

    <vehicle id="9" depart="9.00" arrival="572.00">
        <route edges="-110#2 --110#2 --110#1 -103#1 --103#1"/>
    </vehicle>

    <vehicle id="268" depart="268.00" arrival="574.00">
        <route edges="-110#0 -110#1 -50"/>
    </vehicle>

    <vehicle id="49" depart="49.00" arrival="576.00">
        <route edges="-110#2 --110#2 --110#1 -103#1 --103#1"/>
    </vehicle>

    <vehicle id="465" depart="535.00" arrival="577.00">
        <route edges="-50"/>
    </vehicle>

    <vehicle id="168" depart="168.00" arrival="577.00">
        <route edges="--50 --110#1 -103#1 --103#1"/>
    </vehicle>

    <vehicle id="213" depart="213.00" arrival="578.00">
        <route edges="--50 --110#1 --103#0 -103#0"/>
    </vehicle>

    <vehicle id="200" depart="202.00" arrival="578.00">
        <route edges="-110#0 -110#1 --51"/>
    </vehicle>

    <vehicle id="238" depart="238.00" arrival="579.00">
        <route edges="--50 --110#1 -103#1 --103#1"/>
    </vehicle>

    <vehicle id="296" depart="298.00" arrival="581.00">
        <route edges="--50 --110#1 -103#1 --103#1"/>
    </vehicle>

    <vehicle id="231" depart="231.00" arrival="582.00">
        <route edges="--50 --110#1 -103#1 --103#1"/>
    </vehicle>

    <vehicle id="294" depart="294.00" arrival="583.00">
        <route edges="-110#0 -110#1 -50"/>
    </vehicle>

    <vehicle id="288" depart="288.00" arrival="583.00">
        <route edges="-110#0 -110#1 -110#2"/>
    </vehicle>

    <vehicle id="247" depart="247.00" arrival="583.00">
        <route edges="-110#0 -110#1 --51"/>
    </vehicle>

    <vehicle id="271" depart="271.00" arrival="589.00">
        <route edges="-103#0 -103#1"/>
    </vehicle>

    <vehicle id="308" depart="308.00" arrival="590.00">
        <route edges="-103#0 -103#1"/>
    </vehicle>

    <vehicle id="383" depart="385.00" arrival="590.00">
        <route edges="--110#2 --51"/>
    </vehicle>

    <vehicle id="346" depart="534.00" arrival="590.00">
        <route edges="--51"/>
    </vehicle>

    <vehicle id="315" depart="315.00" arrival="600.00">
        <route edges="--103#1 --110#0"/>
    </vehicle>

    <vehicle id="206" depart="206.00" arrival="602.00">
        <route edges="--103#1 --103#0"/>
    </vehicle>

    <vehicle id="181" depart="554.00" arrival="605.00">
        <route edges="--110#0"/>
    </vehicle>

    <vehicle id="387" depart="387.00" arrival="613.00">
        <route edges="-51"/>
    </vehicle>

    <vehicle id="195" depart="195.00" arrival="615.00">
        <route edges="--50 --51 -51"/>
    </vehicle>

    <vehicle id="455" depart="455.00" arrival="616.00">
        <route edges="--103#1 --110#0"/>
    </vehicle>

    <vehicle id="402" depart="402.00" arrival="616.00">
        <route edges="--103#1 --103#0"/>
    </vehicle>

    <vehicle id="408" depart="408.00" arrival="617.00">
        <route edges="--103#1 --103#0"/>
    </vehicle>

    <vehicle id="188" depart="188.00" arrival="618.00">
        <route edges="--50 --51 -51"/>
    </vehicle>

    <vehicle id="458" depart="461.00" arrival="619.00">
        <route edges="--103#1 --110#0"/>
    </vehicle>

    <vehicle id="431" depart="431.00" arrival="619.00">
        <route edges="--103#1 --103#0"/>
    </vehicle>

    <vehicle id="451" depart="451.00" arrival="621.00">
        <route edges="--103#1 --103#0"/>
    </vehicle>

    <vehicle id="276" depart="276.00" arrival="622.00">
        <route edges="--50 --51 -51"/>
    </vehicle>

    <vehicle id="467" depart="467.00" arrival="624.00">
        <route edges="--50"/>
    </vehicle>

    <vehicle id="441" depart="441.00" arrival="624.00">
        <route edges="-51"/>
    </vehicle>

    <vehicle id="35" depart="35.00" arrival="629.00">
        <route edges="--103#0 -103#0 -110#1 --51 -51"/>
    </vehicle>

    <vehicle id="274" depart="275.00" arrival="630.00">
        <route edges="--110#2 -50 --50"/>
    </vehicle>

    <vehicle id="204" depart="204.00" arrival="631.00">
        <route edges="-103#0 -110#1 --51 -51"/>
    </vehicle>

    <vehicle id="138" depart="139.00" arrival="632.00">
        <route edges="-110#0 -110#1 --51 -51"/>
    </vehicle>

    <vehicle id="199" depart="199.00" arrival="636.00">
        <route edges="-110#0 -110#1 --51 -51"/>
    </vehicle>

    <vehicle id="144" depart="144.00" arrival="637.00">
        <route edges="--103#1 -110#1 -50 --50"/>
    </vehicle>

    <vehicle id="236" depart="236.00" arrival="640.00">
        <route edges="-110#0 -110#1 --51 -51"/>
    </vehicle>

    <vehicle id="105" depart="107.00" arrival="652.00">
        <route edges="-51 -50"/>
    </vehicle>

    <vehicle id="215" depart="217.00" arrival="652.00">
        <route edges="--103#1 --103#0 -103#0"/>
    </vehicle>

    <vehicle id="235" depart="298.00" arrival="663.00">
        <route edges="--51 -51 -110#2"/>
    </vehicle>

    <vehicle id="373" depart="373.00" arrival="669.00">
        <route edges="--50 --51"/>
    </vehicle>

    <vehicle id="435" depart="435.00" arrival="671.00">
        <route edges="-51 -110#2"/>
    </vehicle>

    <vehicle id="481" depart="481.00" arrival="677.00">
        <route edges="-51 -110#2"/>
    </vehicle>

    <vehicle id="473" depart="473.00" arrival="682.00">
        <route edges="--50 -110#2"/>
    </vehicle>

    <vehicle id="104" depart="104.00" arrival="685.00">
        <route edges="-51 -50 --50"/>
    </vehicle>

    <vehicle id="400" depart="509.00" arrival="685.00">
        <route edges="-50 --50 --51"/>
    </vehicle>

    <vehicle id="412" depart="520.00" arrival="687.00">
        <route edges="-50 --50 --51"/>
    </vehicle>

    <vehicle id="149" depart="149.00" arrival="688.00">
        <route edges="-51 -50 --50"/>
    </vehicle>

    <vehicle id="59" depart="59.00" arrival="704.00">
        <route edges="--103#1 -110#1 --110#1"/>
    </vehicle>

    <vehicle id="290" depart="299.00" arrival="712.00">
        <route edges="-50 --50 --110#1"/>
    </vehicle>

    <vehicle id="360" depart="361.00" arrival="715.00">
        <route edges="--50 --110#1"/>
    </vehicle>

    <vehicle id="286" depart="286.00" arrival="720.00">
        <route edges="-51 --110#1"/>
    </vehicle>

    <vehicle id="355" depart="355.00" arrival="726.00">
        <route edges="--50 --51 -51"/>
    </vehicle>

    <vehicle id="342" depart="342.00" arrival="729.00">
        <route edges="--50 --51 -51"/>
    </vehicle>

    <vehicle id="358" depart="358.00" arrival="738.00">
        <route edges="--50 --51 -51"/>
    </vehicle>

    <vehicle id="463" depart="463.00" arrival="740.00">
        <route edges="--110#2 --110#1 -103#1"/>
    </vehicle>

    <vehicle id="214" depart="214.00" arrival="741.00">
        <route edges="--103#1 -110#1 -110#2 --110#2"/>
    </vehicle>

    <vehicle id="39" depart="39.00" arrival="741.00">
        <route edges="-103#0 -110#1 -110#2 --110#2"/>
    </vehicle>

    <vehicle id="263" depart="263.00" arrival="744.00">
        <route edges="--50 --110#1 --110#0"/>
    </vehicle>

    <vehicle id="114" depart="114.00" arrival="744.00">
        <route edges="-103#0 -110#1 -110#2 --110#2"/>
    </vehicle>

    <vehicle id="94" depart="94.00" arrival="744.00">
        <route edges="-103#0 -110#1 -110#2 --110#2"/>
    </vehicle>

    <vehicle id="216" depart="287.00" arrival="746.00">
        <route edges="-50 --50 --110#1 -103#1"/>
    </vehicle>

    <vehicle id="430" depart="432.00" arrival="746.00">
        <route edges="--50 -110#2 --110#2"/>
    </vehicle>

    <vehicle id="205" depart="207.00" arrival="746.00">
        <route edges="-103#0 -110#1 -110#2 --110#2"/>
    </vehicle>

    <vehicle id="471" depart="471.00" arrival="748.00">
        <route edges="-51 -110#2 --110#2"/>
    </vehicle>

    <vehicle id="295" depart="302.00" arrival="749.00">
        <route edges="-50 --50 --110#1 -103#1"/>
    </vehicle>

    <vehicle id="175" depart="549.00" arrival="749.00">
        <route edges="--110#0 -110#0 --103#0"/>
    </vehicle>

    <vehicle id="224" depart="226.00" arrival="750.00">
        <route edges="--103#1 -110#1"/>
    </vehicle>

    <vehicle id="293" depart="295.00" arrival="751.00">
        <route edges="--50 --110#1 --110#0"/>
    </vehicle>

    <vehicle id="398" depart="398.00" arrival="752.00">
        <route edges="--50 --110#1 -103#1"/>
    </vehicle>

    <vehicle id="270" depart="270.00" arrival="752.00">
        <route edges="--50 --110#1 --103#0"/>
    </vehicle>

    <vehicle id="414" depart="414.00" arrival="754.00">
        <route edges="--50 --110#1 -103#1"/>
    </vehicle>

    <vehicle id="292" depart="292.00" arrival="755.00">
        <route edges="--50 --110#1 --103#0"/>
    </vehicle>

    <vehicle id="266" depart="266.00" arrival="756.00">
        <route edges="--103#1 -110#1"/>
    </vehicle>

    <vehicle id="317" depart="318.00" arrival="758.00">
        <route edges="--103#1 -110#1"/>
    </vehicle>

    <vehicle id="100" depart="263.00" arrival="759.00">
        <route edges="-50 --50 --110#1 --103#0"/>
    </vehicle>

    <vehicle id="198" depart="602.00" arrival="761.00">
        <route edges="-110#1"/>
    </vehicle>

    <vehicle id="23" depart="23.00" arrival="762.00">
        <route edges="-51 --110#1 --103#0"/>
    </vehicle>

    <vehicle id="130" depart="294.00" arrival="765.00">
        <route edges="--110#0 -110#0 -103#1"/>
    </vehicle>

    <vehicle id="141" depart="298.00" arrival="767.00">
        <route edges="--110#0 -110#0 -103#1"/>
    </vehicle>

    <vehicle id="388" depart="388.00" arrival="768.00">
        <route edges="--110#2 --110#1 --110#0"/>
    </vehicle>

    <vehicle id="244" depart="244.00" arrival="768.00">
        <route edges="--110#2 --110#1 --103#0"/>
    </vehicle>

    <vehicle id="273" depart="273.00" arrival="769.00">
        <route edges="--110#2 --110#1 --103#0"/>
    </vehicle>

    <vehicle id="329" depart="626.00" arrival="769.00">
        <route edges="-110#1"/>
    </vehicle>

    <vehicle id="395" depart="395.00" arrival="770.00">
        <route edges="--110#2 --110#1 --110#0"/>
    </vehicle>

    <vehicle id="382" depart="382.00" arrival="774.00">
        <route edges="--110#2 --110#1 --103#0"/>
    </vehicle>

    <vehicle id="324" depart="324.00" arrival="776.00">
        <route edges="-110#0 -110#1"/>
    </vehicle>

    <vehicle id="349" depart="349.00" arrival="777.00">
        <route edges="--50 --110#1 -110#1"/>
    </vehicle>

    <vehicle id="183" depart="281.00" arrival="779.00">
        <route edges="-50 --50 --110#1 --110#0"/>
    </vehicle>

    <vehicle id="150" depart="301.00" arrival="780.00">
        <route edges="--110#0 -110#0 -103#1"/>
    </vehicle>

    <vehicle id="267" depart="296.00" arrival="783.00">
        <route edges="-50 --50 --110#1 --110#0"/>
    </vehicle>

    <vehicle id="299" depart="305.00" arrival="785.00">
        <route edges="-50 --50 --110#1 --110#0"/>
    </vehicle>

    <vehicle id="448" depart="449.00" arrival="790.00">
        <route edges="-103#0 -110#1 -50"/>
    </vehicle>

    <vehicle id="279" depart="279.00" arrival="793.00">
        <route edges="-103#0 -110#1 -110#2"/>
    </vehicle>

    <vehicle id="369" depart="369.00" arrival="794.00">
        <route edges="--50 --110#1 -110#1"/>
    </vehicle>

    <vehicle id="391" depart="393.00" arrival="795.00">
        <route edges="-103#0 -110#1 -110#2"/>
    </vehicle>

    <vehicle id="72" depart="252.00" arrival="796.00">
        <route edges="-50 --50 --110#1 --110#0 -110#0"/>
    </vehicle>

    <vehicle id="479" depart="479.00" arrival="800.00">
        <route edges="-103#0 -110#1 --51"/>
    </vehicle>

    <vehicle id="108" depart="578.00" arrival="804.00">
        <route edges="-110#1 -110#2"/>
    </vehicle>

    <vehicle id="340" depart="342.00" arrival="810.00">
        <route edges="--103#1 -110#1 --51"/>
    </vehicle>

    <vehicle id="415" depart="415.00" arrival="815.00">
        <route edges="--103#1 -110#1 --51"/>
    </vehicle>

    <vehicle id="318" depart="623.00" arrival="817.00">
        <route edges="-110#1 -110#2"/>
    </vehicle>

    <vehicle id="326" depart="326.00" arrival="818.00">
        <route edges="-103#0 -110#1 -50 --50"/>
    </vehicle>

    <vehicle id="390" depart="390.00" arrival="819.00">
        <route edges="-103#0 -110#1 -50 --50"/>
    </vehicle>

    <vehicle id="421" depart="637.00" arrival="820.00">
        <route edges="-110#1 -110#2"/>
    </vehicle>

    <vehicle id="139" depart="142.00" arrival="825.00">
        <route edges="-110#0 -103#1 --103#1"/>
    </vehicle>

    <vehicle id="44" depart="44.00" arrival="826.00">
        <route edges="-51 --110#1 --103#0 -103#0"/>
    </vehicle>

    <vehicle id="443" depart="443.00" arrival="828.00">
        <route edges="-103#0 -103#1 --103#1"/>
    </vehicle>

    <vehicle id="118" depart="266.00" arrival="829.00">
        <route edges="-50 --50 --110#1 --103#0 -103#0"/>
    </vehicle>

    <vehicle id="327" depart="327.00" arrival="830.00">
        <route edges="--50 --110#1 --110#0 -110#0"/>
    </vehicle>

    <vehicle id="330" depart="330.00" arrival="830.00">
        <route edges="--110#2 --110#1 -103#1 --103#1"/>
    </vehicle>

    <vehicle id="220" depart="605.00" arrival="832.00">
        <route edges="-110#1 -50"/>
    </vehicle>

    <vehicle id="305" depart="305.00" arrival="832.00">
        <route edges="--50 --110#1 --103#0 -103#0"/>
    </vehicle>

    <vehicle id="422" depart="422.00" arrival="832.00">
        <route edges="--110#2 --110#1 -103#1 --103#1"/>
    </vehicle>

    <vehicle id="243" depart="243.00" arrival="833.00">
        <route edges="--103#1 -110#1 -50 --50"/>
    </vehicle>

    <vehicle id="492" depart="777.00" arrival="833.00">
        <route edges="--51"/>